Program Version,EnergyPlus, Version 8.9.0-40101eaafd, YMD=2019.01.24 12:04
1,5,Environment Title[],Latitude[deg],Longitude[deg],Time Zone[],Elevation[m]
2,8,Day of Simulation[],Month[],Day of Month[],DST Indicator[1=yes 0=no],Hour[],StartMinute[],EndMinute[],DayType
3,5,Cumulative Day of Simulation[],Month[],Day of Month[],DST Indicator[1=yes 0=no],DayType  ! When Daily Report Variables Requested
4,2,Cumulative Days of Simulation[],Month[]  ! When Monthly Report Variables Requested
5,1,Cumulative Days of Simulation[] ! When Run Period Report Variables Requested
6,1,Calendar Year of Simulation[] ! When Annual Report Variables Requested
7,1,Environment,Site Outdoor Air Drybulb Temperature [C] !Hourly
314,1,ZONE ONE,Zone Air Temperature [C] !Hourly
315,1,ERV_1_HX,Heat Exchanger Total Heating Rate [W] !Hourly
379,1,ERV_1_FANSUPPLY,Fan Electric Power [W] !Hourly
393,1,ERV_1_FANSUPPLY,Fan Air Mass Flow Rate [kg/s] !Hourly
394,1,ERV_1_FANEXHAUST,Fan Electric Power [W] !Hourly
396,1,ERV_1_FANEXHAUST,Fan Air Mass Flow Rate [kg/s] !Hourly
397,1,RADIATOR,Baseboard Total Heating Rate [W] !Hourly
448,1,RADIATOR,Baseboard Hot Water Mass Flow Rate [kg/s] !Hourly
449,1,RADIATOR,Baseboard Water Inlet Temperature [C] !Hourly
450,1,RADIATOR,Baseboard Water Outlet Temperature [C] !Hourly
587,1,DISTRICT HEATING 1,District Heating Rate [W] !Hourly
588,1,DISTRICT HEATING 1,District Heating Inlet Temperature [C] !Hourly
589,1,DISTRICT HEATING 1,District Heating Outlet Temperature [C] !Hourly
590,1,DISTRICT HEATING 1,District Heating Mass Flow Rate [kg/s] !Hourly
120,1,DistrictHeating:Facility [J] !Hourly
End of Data Dictionary
1,ANNUAL SIM 1,  59.65,  17.95,   1.00,  61.00
2,1, 1, 1, 0, 1, 0.00,60.00,Sunday
7,4.0
314,18.131317080284405
315,0.0
379,0.0
393,0.0
394,0.0
396,0.0
397,0.0
448,0.0
449,55.0
450,55.0
587,0.0
588,45.46143873698523
589,45.46143873698523
590,0.0
120,43200.0
2,1, 1, 1, 0, 2, 0.00,60.00,Sunday
7,5.3
314,18.04852412373274
315,0.0
379,0.0
393,0.0
394,0.0
396,0.0
397,0.0
448,0.0
449,55.0
450,55.0
587,0.0
588,45.46143873698523
589,45.46143873698523
590,0.0
120,43200.0
2,1, 1, 1, 0, 3, 0.00,60.00,Sunday
7,6.2
314,18.033021511360365
315,0.0
379,0.0
393,0.0
394,0.0
396,0.0
397,0.0
448,0.0
449,55.0
450,55.0
587,0.0
588,45.46143873698523
589,45.46143873698523
590,0.0
120,43200.0
2,1, 1, 1, 0, 4, 0.00,60.00,Sunday
7,6.8
314,18.006742535035266
315,0.0
379,0.0
393,0.0
394,0.0
396,0.0
397,0.0
448,0.0
449,55.0
450,55.0
587,0.0
588,45.46143873698523
589,45.46143873698523
590,0.0
120,43200.0
2,1, 1, 1, 0, 5, 0.00,60.00,Sunday
7,7.2
314,17.96720661895517
315,0.0
379,0.0
393,0.0
394,0.0
396,0.0
397,0.0
448,0.0
449,55.0
450,55.0
587,0.0
588,45.46143873698523
589,45.46143873698523
590,0.0
120,43200.0
2,1, 1, 1, 0, 6, 0.00,60.00,Sunday
7,7.5
314,21.917698364298894
315,0.0
379,0.0
393,0.0
394,0.0
396,0.0
397,887.5036038094133
448,0.03309930209821428
449,55.00000000000001
450,46.5833640221303
587,1305.9562024390898
588,45.57119173601601
589,54.32755702683754
590,0.03309930209821428
120,4744642.328780723
2,1, 1, 1, 0, 7, 0.00,60.00,Sunday
7,7.5
314,22.10914711253912
315,0.0
379,0.0
393,0.0
394,0.0
396,0.0
397,790.0698740033952
448,0.033043504218750009
449,55.0
450,46.07589403545356
587,1279.9520870702681
588,45.73349227342034
589,55.0
590,0.033043504218750009
120,4672627.513452965
2,1, 1, 1, 0, 8, 0.00,60.00,Sunday
7,6.7
314,21.651790431039197
315,0.0
379,0.0
393,0.0
394,0.0
396,0.0
397,720.2804357022474
448,0.029996940000000004
449,55.0
450,45.73409133724145
587,1152.1988426053886
588,45.8112308324758
589,55.0
590,0.029996940000000004
120,4327915.833379398
2,1, 1, 1, 0, 9, 0.00,60.00,Sunday
7,6.0
314,21.418134411386153
315,0.0
379,0.0
393,0.0
394,0.0
396,0.0
397,741.9805714113639
448,0.029996940000000004
449,55.0
450,45.64125935870254
587,1154.9874729378337
588,45.78898174061823
589,55.0
590,0.029996940000000004
120,4424354.902576201
2,1, 1, 1, 0,10, 0.00,60.00,Sunday
7,5.2
314,21.47796175273241
315,0.0
379,0.0
393,0.0
394,0.0
396,0.0
397,744.5465113187621
448,0.029996940000000004
449,55.0
450,45.60120281407213
587,1158.9167887564317
588,45.757631607137408
589,55.0
590,0.029996940000000004
120,4424100.439523155
2,1, 1, 1, 0,11, 0.00,60.00,Sunday
7,5.2
314,20.522373799280588
315,0.0
379,0.0
393,0.0
394,0.0
396,0.0
397,711.5724811393504
448,0.029996940000000004
449,55.0
450,45.48745593397223
587,1163.6178761153674
588,45.720123739650748
589,55.0
590,0.029996940000000004
120,4419424.354015322
2,1, 1, 1, 0,12, 0.00,60.00,Sunday
7,5.2
314,20.557378281660819
315,0.0
379,0.0
393,0.0
394,0.0
396,0.0
397,755.3926443071922
448,0.029996940000000004
449,55.0
450,45.32714796339166
587,1174.2185419400116
588,45.6355453330435
589,55.0
590,0.029996940000000004
120,4479186.750984042
2,1, 1, 1, 0,13, 0.00,60.00,Sunday
7,5.2
314,18.4295529490396
315,0.0
379,0.0
393,0.0
394,0.0
396,0.0
397,0.0
448,0.0
449,54.99999999999999
450,54.99999999999999
587,0.0
588,45.59439895372444
589,45.59439895372444
590,0.0
120,302400.0
2,1, 1, 1, 0,14, 0.00,60.00,Sunday
7,4.6
314,18.76099675711344
315,0.0
379,0.0
393,0.0
394,0.0
396,0.0
397,401.39690473600856
448,0.014998470000000002
449,55.0
450,49.9423616236626
587,593.3107541841151
588,45.54998301193369
589,50.281689920408499
590,0.014998470000000002
120,2402318.7150628149
2,1, 1, 1, 0,15, 0.00,60.00,Sunday
7,4.1
314,19.37477602505268
315,0.0
379,0.0
393,0.0
394,0.0
396,0.0
397,605.0169302885565
448,0.023997552000000007
449,55.0
450,47.0594677103234
587,958.8520930046253
588,45.441271926433667
589,53.08823892200738
590,0.023997552000000007
120,3711067.5348166509
2,1, 1, 1, 0,16, 0.00,60.00,Sunday
7,3.5
314,20.20393459988799
315,0.0
379,0.0
393,0.0
394,0.0
396,0.0
397,815.9486765669078
448,0.03265291906250001
449,55.0
450,45.45492364055315
587,1306.3381675958872
588,45.43009178995434
589,55.0
590,0.03265291906250001
120,4926017.403345194
2,1, 1, 1, 0,17, 0.00,60.00,Sunday
7,3.2
314,21.670043294316664
315,0.0
379,0.0
393,0.0
394,0.0
396,0.0
397,820.5589586983667
448,0.031735043945312509
449,55.0
450,45.771709737518239
587,1259.9505247648785
588,45.504455731740119
589,55.0
590,0.031735043945312509
120,4766221.8891535629
2,1, 1, 1, 0,18, 0.00,60.00,Sunday
7,2.9
314,19.8079047276047
315,0.0
379,0.0
393,0.0
394,0.0
396,0.0
397,0.0
448,0.0
449,54.99999999999999
450,54.99999999999999
587,0.0
588,45.5684754632724
589,45.5684754632724
590,0.0
120,324000.0
2,1, 1, 1, 0,19, 0.00,60.00,Sunday
7,2.6
314,19.444810157136574
315,0.0
379,0.0
393,0.0
394,0.0
396,0.0
397,0.0
448,0.0
449,54.99999999999998
450,54.99999999999998
587,0.0
588,45.5684754632724
589,45.5684754632724
590,0.0
120,302400.0
2,1, 1, 1, 0,20, 0.00,60.00,Sunday
7,2.5
314,19.147953111126748
315,0.0
379,0.0
393,0.0
394,0.0
396,0.0
397,0.0
448,0.0
449,55.0
450,55.0
587,0.0
588,45.56847546327241
589,45.56847546327241
590,0.0
120,252000.0
2,1, 1, 1, 0,21, 0.00,60.00,Sunday
7,2.4
314,18.910663546040973
315,0.0
379,0.0
393,0.0
394,0.0
396,0.0
397,0.0
448,0.0
449,55.0
450,55.0
587,0.0
588,45.56847546327241
589,45.56847546327241
590,0.0
120,216000.0
2,1, 1, 1, 0,22, 0.00,60.00,Sunday
7,2.3
314,18.82944020861095
315,0.0
379,0.0
393,0.0
394,0.0
396,0.0
397,0.0
448,0.0
449,55.0
450,55.0
587,0.0
588,45.56847546327241
589,45.56847546327241
590,0.0
120,244800.0
2,1, 1, 1, 0,23, 0.00,60.00,Sunday
7,2.3
314,18.660525032855796
315,0.0
379,0.0
393,0.0
394,0.0
396,0.0
397,0.0
448,0.0
449,55.0
450,55.0
587,0.0
588,45.56847546327241
589,45.56847546327241
590,0.0
120,187200.0
2,1, 1, 1, 0,24, 0.00,60.00,Sunday
7,2.2
314,18.426798303238077
315,0.0
379,0.0
393,0.0
394,0.0
396,0.0
397,0.0
448,0.0
449,55.0
450,55.0
587,0.0
588,45.56847546327241
589,45.56847546327241
590,0.0
120,86400.0
2,2, 1, 2, 0, 1, 0.00,60.00,Monday
7,2.2
314,17.894559083058547
315,0.0
379,0.0
393,0.0
394,0.0
396,0.0
397,0.0
448,0.0
449,55.0
450,55.0
587,0.0
588,45.56847546327241
589,45.56847546327241
590,0.0
120,43200.0
2,2, 1, 2, 0, 2, 0.00,60.00,Monday
7,2.2
314,17.723977082029788
315,0.0
379,0.0
393,0.0
394,0.0
396,0.0
397,0.0
448,0.0
449,55.0
450,55.0
587,0.0
588,45.56847546327241
589,45.56847546327241
590,0.0
120,43200.0
2,2, 1, 2, 0, 3, 0.00,60.00,Monday
7,2.1
314,17.632707389042243
315,0.0
379,0.0
393,0.0
394,0.0
396,0.0
397,0.0
448,0.0
449,55.0
450,55.0
587,0.0
588,45.56847546327241
589,45.56847546327241
590,0.0
120,43200.0
2,2, 1, 2, 0, 4, 0.00,60.00,Monday
7,2.1
314,17.5635146102654
315,0.0
379,0.0
393,0.0
394,0.0
396,0.0
397,0.0
448,0.0
449,55.0
450,55.0
587,0.0
588,45.56847546327241
589,45.56847546327241
590,0.0
120,43200.0
2,2, 1, 2, 0, 5, 0.00,60.00,Monday
7,2.1
314,17.479803316686604
315,0.0
379,0.0
393,0.0
394,0.0
396,0.0
397,0.0
448,0.0
449,55.0
450,55.0
587,0.0
588,45.56847546327241
589,45.56847546327241
590,0.0
120,43200.0
2,2, 1, 2, 0, 6, 0.00,60.00,Monday
7,2.0
314,21.480841161917977
315,0.0
379,0.0
393,0.0
394,0.0
396,0.0
397,995.6589887445076
448,0.037072111116071438
449,55.00000000000001
450,45.917883574143889
587,1447.9087904197393
588,45.66584211152493
589,55.00000000000001
590,0.037072111116071438
120,5255671.64551106
2,2, 1, 2, 0, 7, 0.00,60.00,Monday
7,2.0
314,21.837675556708559
315,0.0
379,0.0
393,0.0
394,0.0
396,0.0
397,1072.719111670432
448,0.0498386659375
449,55.0
450,46.65417702222552
587,1882.2634650154946
588,45.965670577504
589,55.00000000000001
590,0.0498386659375
120,6977748.47405578
2,2, 1, 2, 0, 8, 0.00,60.00,Monday
7,2.0
314,20.09545376741665
315,0.0
379,0.0
393,0.0
394,0.0
396,0.0
397,298.1297639509291
448,0.014998470000000002
449,55.0
450,50.11698349906693
587,558.0195413863421
588,46.13682981372434
589,50.58696618986802
590,0.014998470000000002
120,2361670.3489908317
2,2, 1, 2, 0, 9, 0.00,60.00,Monday
7,1.9
314,20.102923113306184
315,0.0
379,0.0
393,0.0
394,0.0
396,0.0
397,1003.0329728196915
448,0.0420269628125
449,55.0
450,45.885232783674499
587,1578.8803463902639
588,46.01281077337489
589,55.0
590,0.0420269628125
120,5986369.2470049499
2,2, 1, 2, 0,10, 0.00,60.00,Monday
7,1.9
314,20.087893073382078
315,0.0
379,0.0
393,0.0
394,0.0
396,0.0
397,874.35089331384
448,0.035465132187500008
449,55.0
450,45.574883202857417
587,1344.350185205274
588,45.931923358053257
589,55.0
590,0.035465132187500008
120,5070060.666738987
2,2, 1, 2, 0,11, 0.00,60.00,Monday
7,1.9
314,20.086647608980575
315,0.0
379,0.0
393,0.0
394,0.0
396,0.0
397,851.3667297421359
448,0.034527727812500009
449,55.0
450,45.56621262078892
587,1323.4911486092383
588,45.83020748754946
589,55.0
590,0.034527727812500009
120,4958968.134993258
2,2, 1, 2, 0,12, 0.00,60.00,Monday
7,1.9
314,20.07593670819238
315,0.0
379,0.0
393,0.0
394,0.0
396,0.0
397,788.9397189447942
448,0.0317155146875
449,55.0
450,45.45688073318297
587,1226.7921241446948
588,45.74647031109768
589,55.0
590,0.0317155146875
120,4654051.646920901
2,2, 1, 2, 0,13, 0.00,60.00,Monday
7,1.9
314,20.073910846841235
315,0.0
379,0.0
393,0.0
394,0.0
396,0.0
397,775.6202777239918
448,0.031168695468750009
449,55.0
450,45.44435030506813
587,1215.098288698961
588,45.67384778103863
589,54.99999999999999
590,0.031168695468750009
120,4669553.839316259
2,2, 1, 2, 0,14, 0.00,60.00,Monday
7,1.6
314,20.079784369540687
315,0.0
379,0.0
393,0.0
394,0.0
396,0.0
397,838.498698409042
448,0.034293376718750007
449,55.0
450,45.60319153732431
587,1340.43621305596
588,45.64925682423489
589,55.0
590,0.034293376718750007
120,5077570.367001456
2,2, 1, 2, 0,15, 0.00,60.00,Monday
7,1.3
314,20.08335426610405
315,0.0
379,0.0
393,0.0
394,0.0
396,0.0
397,869.8126933522303
448,0.03593383437500001
449,55.0
450,45.690578345515849
587,1401.1054027461953
588,45.672247902388637
589,55.0
590,0.03593383437500001
120,5288779.449886303
2,2, 1, 2, 0,16, 0.00,60.00,Monday
7,1.0
314,20.083950651277076
315,0.0
379,0.0
393,0.0
394,0.0
396,0.0
397,899.3173395970445
448,0.03749617500000001
449,55.0
450,45.77253940097309
587,1454.8618633196181
588,45.717956659768038
589,55.0
590,0.03749617500000001
120,5446302.707950626
2,2, 1, 2, 0,17, 0.00,60.00,Monday
7,0.9
314,20.07994833820463
315,0.0
379,0.0
393,0.0
394,0.0
396,0.0
397,892.6762089562197
448,0.03718370687500001
449,55.0
450,45.75939278926925
587,1436.4068640692524
588,45.7587069600434
589,55.00000000000001
590,0.03718370687500001
120,5401464.710649309
2,2, 1, 2, 0,18, 0.00,60.00,Monday
7,0.7
314,20.07256815302192
315,0.0
379,0.0
393,0.0
394,0.0
396,0.0
397,776.3141015919125
448,0.03140304656250001
449,55.0
450,45.47921978860749
587,1216.300594947463
588,45.734313632659759
589,55.0
590,0.03140304656250001
120,4738682.141810867
2,2, 1, 2, 0,19, 0.00,60.00,Monday
7,0.6
314,20.56532935832586
315,0.0
379,0.0
393,0.0
394,0.0
396,0.0
397,453.4443259241092
448,0.017998164000000005
449,55.0
450,49.24689085697921
587,701.3319103865858
588,45.67794999131583
589,51.27109750439226
590,0.017998164000000005
120,2877594.877391709
2,2, 1, 2, 0,20, 0.00,60.00,Monday
7,0.6
314,20.5279525159251
315,0.0
379,0.0
393,0.0
394,0.0
396,0.0
397,366.14358379194359
448,0.014998470000000002
449,55.0
450,50.22724484743687
587,586.3690405703612
588,45.64452902210663
589,50.3208503371552
590,0.014998470000000002
120,2398928.5460533008
2,2, 1, 2, 0,21, 0.00,60.00,Monday
7,0.6
314,19.145655663838367
315,0.0
379,0.0
393,0.0
394,0.0
396,0.0
397,0.0
448,0.0
449,55.0
450,55.0
587,0.0
588,45.6343184552911
589,45.6343184552911
590,0.0
120,259200.0
2,2, 1, 2, 0,22, 0.00,60.00,Monday
7,0.6
314,18.949634771541754
315,0.0
379,0.0
393,0.0
394,0.0
396,0.0
397,0.0
448,0.0
449,55.0
450,55.0
587,0.0
588,45.6343184552911
589,45.6343184552911
590,0.0
120,324000.0
2,2, 1, 2, 0,23, 0.00,60.00,Monday
7,0.8
314,18.541814526339
315,0.0
379,0.0
393,0.0
394,0.0
396,0.0
397,0.0
448,0.0
449,55.0
450,55.0
587,0.0
588,45.6343184552911
589,45.6343184552911
590,0.0
120,216000.0
2,2, 1, 2, 0,24, 0.00,60.00,Monday
7,0.9
314,18.271866153364294
315,0.0
379,0.0
393,0.0
394,0.0
396,0.0
397,0.0
448,0.0
449,55.0
450,55.0
587,0.0
588,45.6343184552911
589,45.6343184552911
590,0.0
120,57600.0
2,3, 1, 3, 0, 1, 0.00,60.00,Tuesday
7,1.1
314,17.774570422622415
315,0.0
379,0.0
393,0.0
394,0.0
396,0.0
397,0.0
448,0.0
449,55.0
450,55.0
587,0.0
588,45.6343184552911
589,45.6343184552911
590,0.0
120,43200.0
2,3, 1, 3, 0, 2, 0.00,60.00,Tuesday
7,0.9
314,17.623607267961768
315,0.0
379,0.0
393,0.0
394,0.0
396,0.0
397,0.0
448,0.0
449,55.0
450,55.0
587,0.0
588,45.6343184552911
589,45.6343184552911
590,0.0
120,43200.0
2,3, 1, 3, 0, 3, 0.00,60.00,Tuesday
7,0.6
314,17.5477064164232
315,0.0
379,0.0
393,0.0
394,0.0
396,0.0
397,0.0
448,0.0
449,55.0
450,55.0
587,0.0
588,45.6343184552911
589,45.6343184552911
590,0.0
120,43200.0
2,3, 1, 3, 0, 4, 0.00,60.00,Tuesday
7,0.4
314,17.431342297641807
315,0.0
379,0.0
393,0.0
394,0.0
396,0.0
397,0.0
448,0.0
449,55.0
450,55.0
587,0.0
588,45.6343184552911
589,45.6343184552911
590,0.0
120,43200.0
2,3, 1, 3, 0, 5, 0.00,60.00,Tuesday
7,0.6
314,17.348677024007857
315,0.0
379,0.0
393,0.0
394,0.0
396,0.0
397,0.0
448,0.0
449,55.0
450,55.0
587,0.0
588,45.6343184552911
589,45.6343184552911
590,0.0
120,43200.0
2,3, 1, 3, 0, 6, 0.00,60.00,Tuesday
7,0.9
314,21.446836426103219
315,0.0
379,0.0
393,0.0
394,0.0
396,0.0
397,1035.8470001900707
448,0.03871814856026785
449,55.00000000000001
450,45.98893567316093
587,1501.6916893381403
588,45.73055217095034
589,55.00000000000001
590,0.03871814856026785
120,5449290.081617307
2,3, 1, 3, 0, 7, 0.00,60.00,Tuesday
7,1.1
314,21.74928547138039
315,0.0
379,0.0
393,0.0
394,0.0
396,0.0
397,1070.0578921160154
448,0.049994899999999998
449,55.0
450,46.64643071428839
587,1877.2763815890398
588,46.01733673038609
589,54.999999999999989
590,0.049994899999999998
120,6959794.973720543
2,3, 1, 3, 0, 8, 0.00,60.00,Tuesday
7,0.9
314,21.992991609107194
315,0.0
379,0.0
393,0.0
394,0.0
396,0.0
397,980.1103658098964
448,0.04351118640625
449,55.0
450,46.38974154475878
587,1585.4007629892874
588,46.28557210038549
589,55.00000000000001
590,0.04351118640625
120,6060242.746761435
2,3, 1, 3, 0, 9, 0.00,60.00,Tuesday
7,0.8
314,19.88737708947766
315,0.0
379,0.0
393,0.0
394,0.0
396,0.0
397,828.776673189724
448,0.04271885651785713
449,54.99999999999999
450,47.491289796144787
587,1552.5206829295876
588,46.306296399735959
589,53.758204906669707
590,0.04271885651785713
120,5891474.458546516
2,3, 1, 3, 0,10, 0.00,60.00,Tuesday
7,0.6
314,20.100632216853577
315,0.0
379,0.0
393,0.0
394,0.0
396,0.0
397,1060.9220628125854
448,0.04562034625
449,55.0
450,46.08077220393808
587,1664.868386266808
588,46.26991122018063
589,55.0
590,0.04562034625
120,6223926.190560509
2,3, 1, 3, 0,11, 0.00,60.00,Tuesday
7,1.1
314,20.08357375306673
315,0.0
379,0.0
393,0.0
394,0.0
396,0.0
397,865.5202922761471
448,0.035308898125
449,55.0
450,45.60338015295882
587,1308.669934304557
588,46.13362444965803
589,55.00000000000001
590,0.035308898125
120,4905611.763496405
2,3, 1, 3, 0,12, 0.00,60.00,Tuesday
7,1.6
314,19.894750490144337
315,0.0
379,0.0
393,0.0
394,0.0
396,0.0
397,753.253577098481
448,0.029996940000000004
449,55.0
450,45.368231745478379
587,1135.4894764762894
588,45.94454554639012
589,55.0
590,0.029996940000000004
120,4325362.115314642
2,3, 1, 3, 0,13, 0.00,60.00,Tuesday
7,2.1
314,19.987151412647188
315,0.0
379,0.0
393,0.0
394,0.0
396,0.0
397,754.016850906318
448,0.029996940000000004
449,55.0
450,45.3268197127255
587,1155.6863765847313
588,45.78340552923672
589,54.99999999999999
590,0.029996940000000004
120,4455670.955705033
2,3, 1, 3, 0,14, 0.00,60.00,Tuesday
7,1.7
314,19.877083621680975
315,0.0
379,0.0
393,0.0
394,0.0
396,0.0
397,752.7937783383484
448,0.029996940000000004
449,55.0
450,45.3537680351331
587,1169.9737082392714
588,45.669413224704388
589,54.99999999999999
590,0.029996940000000004
120,4463905.349661377
2,3, 1, 3, 0,15, 0.00,60.00,Tuesday
7,1.4
314,19.723038498301947
315,0.0
379,0.0
393,0.0
394,0.0
396,0.0
397,753.0771810393072
448,0.029996940000000004
449,55.0
450,45.32376331154427
587,1180.06414881489
588,45.588905309609938
589,54.99999999999999
590,0.029996940000000004
120,4493030.935733603
2,3, 1, 3, 0,16, 0.00,60.00,Tuesday
7,1.0
314,19.59626345766788
315,0.0
379,0.0
393,0.0
394,0.0
396,0.0
397,753.1637208809135
448,0.029996940000000004
449,55.0
450,45.283195704747139
587,1188.453055262783
588,45.52197283728894
589,55.0
590,0.029996940000000004
120,4487230.9989460189
2,3, 1, 3, 0,17, 0.00,60.00,Tuesday
7,1.0
314,19.594700992193187
315,0.0
379,0.0
393,0.0
394,0.0
396,0.0
397,755.4778443125603
448,0.029996940000000004
449,55.0
450,45.25143520185915
587,1195.666130665461
588,45.46442161180493
589,54.999999999999989
590,0.029996940000000004
120,4534798.07039566
2,3, 1, 3, 0,18, 0.00,60.00,Tuesday
7,1.0
314,20.045776362402465
315,0.0
379,0.0
393,0.0
394,0.0
396,0.0
397,761.2308405642598
448,0.029996940000000004
449,54.99999999999999
450,45.29133637883936
587,1200.8189466078175
588,45.42330845713038
589,55.0
590,0.029996940000000004
120,4682948.207788143
2,3, 1, 3, 0,19, 0.00,60.00,Tuesday
7,1.0
314,19.575568505583143
315,0.0
379,0.0
393,0.0
394,0.0
396,0.0
397,234.83794175155675
448,0.009998980000000001
449,54.999999999999989
450,51.682401796190109
587,401.3333632076884
588,45.40957422732377
589,48.610265308208109
590,0.009998980000000001
120,1797600.1075476784
2,3, 1, 3, 0,20, 0.00,60.00,Tuesday
7,1.0
314,19.130954774151456
315,0.0
379,0.0
393,0.0
394,0.0
396,0.0
397,0.0
448,0.0
449,54.99999999999999
450,54.99999999999999
587,0.0
588,45.38114053651843
589,45.38114053651843
590,0.0
120,288000.0
2,3, 1, 3, 0,21, 0.00,60.00,Tuesday
7,1.0
314,18.88249322194495
315,0.0
379,0.0
393,0.0
394,0.0
396,0.0
397,0.0
448,0.0
449,54.99999999999999
450,54.99999999999999
587,0.0
588,45.38114053651843
589,45.38114053651843
590,0.0
120,259200.0
2,3, 1, 3, 0,22, 0.00,60.00,Tuesday
7,1.0
314,18.785640979152818
315,0.0
379,0.0
393,0.0
394,0.0
396,0.0
397,0.0
448,0.0
449,54.99999999999999
450,54.99999999999999
587,0.0
588,45.38114053651843
589,45.38114053651843
590,0.0
120,324000.0
2,3, 1, 3, 0,23, 0.00,60.00,Tuesday
7,1.4
314,18.597797448147895
315,0.0
379,0.0
393,0.0
394,0.0
396,0.0
397,0.0
448,0.0
449,54.99999999999999
450,54.99999999999999
587,0.0
588,45.38114053651843
589,45.38114053651843
590,0.0
120,216000.0
2,3, 1, 3, 0,24, 0.00,60.00,Tuesday
7,1.7
314,18.3320603585597
315,0.0
379,0.0
393,0.0
394,0.0
396,0.0
397,0.0
448,0.0
449,54.99999999999999
450,54.99999999999999
587,0.0
588,45.38114053651843
589,45.38114053651843
590,0.0
120,57600.0
2,4, 1, 4, 0, 1, 0.00,60.00,Wednesday
7,2.1
314,17.857202989300473
315,0.0
379,0.0
393,0.0
394,0.0
396,0.0
397,0.0
448,0.0
449,54.99999999999999
450,54.99999999999999
587,0.0
588,45.38114053651843
589,45.38114053651843
590,0.0
120,43200.0
2,4, 1, 4, 0, 2, 0.00,60.00,Wednesday
7,1.4
314,17.675002970500939
315,0.0
379,0.0
393,0.0
394,0.0
396,0.0
397,0.0
448,0.0
449,54.99999999999999
450,54.99999999999999
587,0.0
588,45.38114053651843
589,45.38114053651843
590,0.0
120,43200.0
2,4, 1, 4, 0, 3, 0.00,60.00,Wednesday
7,0.8
314,17.571203925596007
315,0.0
379,0.0
393,0.0
394,0.0
396,0.0
397,0.0
448,0.0
449,54.99999999999999
450,54.99999999999999
587,0.0
588,45.38114053651843
589,45.38114053651843
590,0.0
120,43200.0
2,4, 1, 4, 0, 4, 0.00,60.00,Wednesday
7,0.1
314,17.463343037264047
315,0.0
379,0.0
393,0.0
394,0.0
396,0.0
397,0.0
448,0.0
449,54.99999999999999
450,54.99999999999999
587,0.0
588,45.38114053651843
589,45.38114053651843
590,0.0
120,43200.0
2,4, 1, 4, 0, 5, 0.00,60.00,Wednesday
7,-0.3
314,17.35225113098539
315,0.0
379,0.0
393,0.0
394,0.0
396,0.0
397,0.0
448,0.0
449,54.99999999999999
450,54.99999999999999
587,0.0
588,45.38114053651843
589,45.38114053651843
590,0.0
120,43200.0
2,4, 1, 4, 0, 6, 0.00,60.00,Wednesday
7,-0.7
314,21.446339427427508
315,0.0
379,0.0
393,0.0
394,0.0
396,0.0
397,1035.9249170911478
448,0.03882416453124999
449,54.9978509626893
450,45.99054385453426
587,1537.5742543009917
588,45.53282356142205
589,54.99521482811814
590,0.03882416453124999
120,5578467.31548357
2,4, 1, 4, 0, 7, 0.00,60.00,Wednesday
7,-1.1
314,21.636822518493653
315,0.0
379,0.0
393,0.0
394,0.0
396,0.0
397,1067.2250958186128
448,0.049994899999999998
449,54.998593256585809
450,46.62862071028363
587,1902.7017246010346
588,45.895624673940798
589,55.00000000000001
590,0.049994899999999998
120,7051326.2085637249
2,4, 1, 4, 0, 8, 0.00,60.00,Wednesday
7,-1.4
314,21.99872636470795
315,0.0
379,0.0
393,0.0
394,0.0
396,0.0
397,1023.0476669655652
448,0.04554222921875001
449,54.99921949500249
450,46.474185745561658
587,1668.5124065250216
588,46.23990179975051
589,55.0
590,0.04554222921875001
120,6359444.6634900779
2,4, 1, 4, 0, 9, 0.00,60.00,Wednesday
7,-1.8
314,19.526585568583437
315,0.0
379,0.0
393,0.0
394,0.0
396,0.0
397,811.7993755078913
448,0.04285277142857142
449,54.99951678407963
450,47.42752742887988
587,1562.281486564669
588,46.28054256752123
589,53.75587875782254
590,0.04285277142857142
120,5926613.351632809
2,4, 1, 4, 0,10, 0.00,60.00,Wednesday
7,-2.1
314,20.021430778007696
315,0.0
379,0.0
393,0.0
394,0.0
396,0.0
397,1046.9373613853707
448,0.04397988859375
449,54.999723285881618
450,45.9190941262562
587,1618.9830876303254
588,46.19425674404823
589,55.0
590,0.04397988859375
120,6058739.115469171
2,4, 1, 4, 0,11, 0.00,60.00,Wednesday
7,-2.4
314,20.09514202531285
315,0.0
379,0.0
393,0.0
394,0.0
396,0.0
397,939.7625462574217
448,0.0389022815625
449,54.99983254399511
450,45.761819037686127
587,1448.8629689771114
588,46.090500693599967
589,55.00000000000001
590,0.0389022815625
120,5410306.688317602
2,4, 1, 4, 0,12, 0.00,60.00,Wednesday
7,-2.6
314,20.09481804911506
315,0.0
379,0.0
393,0.0
394,0.0
396,0.0
397,961.0543595123517
448,0.040308388125000007
449,54.99989580224595
450,45.852992741479777
587,1514.8163151062033
588,46.00984298481089
589,55.0
590,0.040308388125000007
120,5690938.734382332
2,4, 1, 4, 0,13, 0.00,60.00,Wednesday
7,-2.9
314,20.093706756286019
315,0.0
379,0.0
393,0.0
394,0.0
396,0.0
397,962.1573719246752
448,0.040542739218750008
449,54.99993583466656
450,45.88672950335405
587,1528.3968025404433
588,45.981665232630437
589,55.0
590,0.040542739218750008
120,5797428.489145596
2,4, 1, 4, 0,14, 0.00,60.00,Wednesday
7,-3.5
314,20.095815785115574
315,0.0
379,0.0
393,0.0
394,0.0
396,0.0
397,1032.854422653985
448,0.044682941875
449,54.999961454323457
450,46.112216408317888
587,1677.1730769173373
588,46.020779621167708
589,55.0
590,0.044682941875
120,6289823.076902415
2,4, 1, 4, 0,15, 0.00,60.00,Wednesday
7,-4.2
314,20.099509877877229
315,0.0
379,0.0
393,0.0
394,0.0
396,0.0
397,1079.4785231070712
448,0.047573272031249998
449,54.99997779845416
450,46.26733104217976
587,1765.1070357829706
588,46.12418212769762
589,55.0
590,0.047573272031249998
120,6599185.328818694
2,4, 1, 4, 0,16, 0.00,60.00,Wednesday
7,-4.8
314,20.082265451986819
315,0.0
379,0.0
393,0.0
394,0.0
396,0.0
397,1116.7854443719298
448,0.0499949
449,54.99998762105603
450,46.393624817977968
587,1829.1531378504083
588,46.24770082299494
589,54.99999999999999
590,0.0499949
120,6793751.29626147
2,4, 1, 4, 0,17, 0.00,60.00,Wednesday
7,-5.1
314,20.05860251811259
315,0.0
379,0.0
393,0.0
394,0.0
396,0.0
397,1115.2990275457405
448,0.0499949
449,54.9999932062915
450,46.39242366273533
587,1809.3095552568648
588,46.34268955572088
589,55.00000000000001
590,0.0499949
120,6743914.398924713
2,4, 1, 4, 0,18, 0.00,60.00,Wednesday
7,-5.5
314,20.08776025294209
315,0.0
379,0.0
393,0.0
394,0.0
396,0.0
397,1023.2277460767186
448,0.0445267078125
449,54.99999615903278
450,46.1165743515309
587,1613.6813967592261
588,46.33051542885606
589,55.00000000000001
590,0.0445267078125
120,6169253.028333214
2,4, 1, 4, 0,19, 0.00,60.00,Wednesday
7,-5.8
314,20.60317757107569
315,0.0
379,0.0
393,0.0
394,0.0
396,0.0
397,563.1051803852249
448,0.022497705000000004
449,54.99999742626103
450,47.797259093579508
587,828.5499914859901
588,46.197964939566947
589,52.805519567694449
590,0.022497705000000004
120,3335579.969349564
2,4, 1, 4, 0,20, 0.00,60.00,Wednesday
7,-5.9
314,20.705182483748538
315,0.0
379,0.0
393,0.0
394,0.0
396,0.0
397,474.1084985839366
448,0.019997960000000003
449,54.99999810369502
450,48.693235888743298
587,748.9263870185475
588,46.02506668810689
589,51.99767817236854
590,0.019997960000000003
120,2984134.993266771
2,4, 1, 4, 0,21, 0.00,60.00,Wednesday
7,-6.1
314,18.896638667221827
315,0.0
379,0.0
393,0.0
394,0.0
396,0.0
397,0.0
448,0.0
449,54.99999825515329
450,54.99999825515329
587,0.0
588,45.993034517105609
589,45.993034517105609
590,0.0
120,259200.0
2,4, 1, 4, 0,22, 0.00,60.00,Wednesday
7,-6.2
314,18.595595369364554
315,0.0
379,0.0
393,0.0
394,0.0
396,0.0
397,0.0
448,0.0
449,54.99999825515329
450,54.99999825515329
587,0.0
588,45.99303451710561
589,45.99303451710561
590,0.0
120,324000.0
2,4, 1, 4, 0,23, 0.00,60.00,Wednesday
7,-6.2
314,18.198488344940967
315,0.0
379,0.0
393,0.0
394,0.0
396,0.0
397,0.0
448,0.0
449,54.999998255153297
450,54.999998255153297
587,0.0
588,45.99303451710561
589,45.99303451710561
590,0.0
120,216000.0
2,4, 1, 4, 0,24, 0.00,60.00,Wednesday
7,-6.3
314,17.762192137989893
315,0.0
379,0.0
393,0.0
394,0.0
396,0.0
397,0.0
448,0.0
449,54.999998255153297
450,54.999998255153297
587,0.0
588,45.99303451710561
589,45.99303451710561
590,0.0
120,57600.0
2,5, 1, 5, 0, 1, 0.00,60.00,Thursday
7,-6.3
314,17.28970772130696
315,0.0
379,0.0
393,0.0
394,0.0
396,0.0
397,0.0
448,0.0
449,54.999998255153297
450,54.999998255153297
587,0.0
588,45.99303451710561
589,45.99303451710561
590,0.0
120,43200.0
2,5, 1, 5, 0, 2, 0.00,60.00,Thursday
7,-6.4
314,17.132270977761125
315,0.0
379,0.0
393,0.0
394,0.0
396,0.0
397,0.0
448,0.0
449,54.999998255153297
450,54.999998255153297
587,0.0
588,45.99303451710561
589,45.99303451710561
590,0.0
120,43200.0
2,5, 1, 5, 0, 3, 0.00,60.00,Thursday
7,-6.5
314,17.01950457102911
315,0.0
379,0.0
393,0.0
394,0.0
396,0.0
397,0.0
448,0.0
449,54.999998255153297
450,54.999998255153297
587,0.0
588,45.99303451710561
589,45.99303451710561
590,0.0
120,43200.0
2,5, 1, 5, 0, 4, 0.00,60.00,Thursday
7,-6.6
314,16.894723716720514
315,0.0
379,0.0
393,0.0
394,0.0
396,0.0
397,0.0
448,0.0
449,54.999998255153297
450,54.999998255153297
587,0.0
588,45.99303451710561
589,45.99303451710561
590,0.0
120,43200.0
2,5, 1, 5, 0, 5, 0.00,60.00,Thursday
7,-6.4
314,16.78353775901712
315,0.0
379,0.0
393,0.0
394,0.0
396,0.0
397,0.0
448,0.0
449,54.999998255153297
450,54.999998255153297
587,0.0
588,45.99303451710561
589,45.99303451710561
590,0.0
120,43200.0
2,5, 1, 5, 0, 6, 0.00,60.00,Thursday
7,-6.3
314,21.16118237686947
315,0.0
379,0.0
393,0.0
394,0.0
396,0.0
397,1214.1097240781946
448,0.047158650865384618
449,54.99999867933272
450,46.32223819826856
587,1763.1294149228925
588,46.06025352472686
589,54.99999999999998
590,0.047158650865384618
120,6390465.893722415
2,5, 1, 5, 0, 7, 0.00,60.00,Thursday
7,-6.1
314,21.060122501010924
315,0.0
379,0.0
393,0.0
394,0.0
396,0.0
397,1033.8737191326518
448,0.049994899999999998
449,54.999999254976547
450,46.526339825486818
587,1822.4551404445383
588,46.27976327637972
589,55.0
590,0.049994899999999998
120,6762438.505600339
2,5, 1, 5, 0, 8, 0.00,60.00,Thursday
7,-5.8
314,21.74891370465168
315,0.0
379,0.0
393,0.0
394,0.0
396,0.0
397,1121.4389362057593
448,0.0499949
449,54.99999959112246
450,46.576975886885488
587,1791.8698840415484
588,46.426170303250028
589,55.0
590,0.0499949
120,6803531.582549574
2,5, 1, 5, 0, 9, 0.00,60.00,Thursday
7,-5.6
314,19.09957825729252
315,0.0
379,0.0
393,0.0
394,0.0
396,0.0
397,891.831431313418
448,0.04666190666666667
449,54.99999976743373
450,46.01906966435075
587,1676.0945170469486
588,46.41156280842672
589,55.0
590,0.04666190666666667
120,6336340.261369014
2,5, 1, 5, 0,10, 0.00,60.00,Thursday
7,-5.3
314,19.21737717535542
315,0.0
379,0.0
393,0.0
394,0.0
396,0.0
397,1167.5871284473685
448,0.0499949
449,54.99999987182254
450,45.9637576929729
587,1828.3627437943087
588,46.25148435639375
589,55.0
590,0.0499949
120,6812505.877659512
2,5, 1, 5, 0,11, 0.00,60.00,Thursday
7,-4.9
314,19.84306135166601
315,0.0
379,0.0
393,0.0
394,0.0
396,0.0
397,1144.7850745056267
448,0.04942204177083333
449,54.99999992959019
450,46.19598795086531
587,1817.25518238956
588,46.20398444467046
589,55.0
590,0.04942204177083333
120,6736518.656602416
2,5, 1, 5, 0,12, 0.00,60.00,Thursday
7,-4.4
314,20.11011177795166
315,0.0
379,0.0
393,0.0
394,0.0
396,0.0
397,1120.214652616207
448,0.04944808078125