Program Version,EnergyPlus, Version 8.9.0-40101eaafd, YMD=2019.01.24 12:22
1,5,Environment Title[],Latitude[deg],Longitude[deg],Time Zone[],Elevation[m]
2,8,Day of Simulation[],Month[],Day of Month[],DST Indicator[1=yes 0=no],Hour[],StartMinute[],EndMinute[],DayType
3,5,Cumulative Day of Simulation[],Month[],Day of Month[],DST Indicator[1=yes 0=no],DayType  ! When Daily Report Variables Requested
4,2,Cumulative Days of Simulation[],Month[]  ! When Monthly Report Variables Requested
5,1,Cumulative Days of Simulation[] ! When Run Period Report Variables Requested
6,1,Calendar Year of Simulation[] ! When Annual Report Variables Requested
7,1,Environment,Site Outdoor Air Drybulb Temperature [C] !Hourly
314,1,ZONE ONE,Zone Air Temperature [C] !Hourly
315,1,ERV_1_HX,Heat Exchanger Total Heating Rate [W] !Hourly
379,1,ERV_1_FANSUPPLY,Fan Electric Power [W] !Hourly
393,1,ERV_1_FANSUPPLY,Fan Air Mass Flow Rate [kg/s] !Hourly
394,1,ERV_1_FANEXHAUST,Fan Electric Power [W] !Hourly
396,1,ERV_1_FANEXHAUST,Fan Air Mass Flow Rate [kg/s] !Hourly
397,1,RADIATOR,Baseboard Total Heating Rate [W] !Hourly
448,1,RADIATOR,Baseboard Hot Water Mass Flow Rate [kg/s] !Hourly
449,1,RADIATOR,Baseboard Water Inlet Temperature [C] !Hourly
450,1,RADIATOR,Baseboard Water Outlet Temperature [C] !Hourly
587,1,DISTRICT HEATING 1,District Heating Rate [W] !Hourly
588,1,DISTRICT HEATING 1,District Heating Inlet Temperature [C] !Hourly
589,1,DISTRICT HEATING 1,District Heating Outlet Temperature [C] !Hourly
590,1,DISTRICT HEATING 1,District Heating Mass Flow Rate [kg/s] !Hourly
120,1,DistrictHeating:Facility [J] !Hourly
End of Data Dictionary
1,ANNUAL SIM 1,  59.65,  17.95,   1.00,  61.00
2,1, 1, 1, 0, 1, 0.00,60.00,Sunday
7,4.0
314,18.26282414077218
315,0.0
379,0.0
393,0.0
394,0.0
396,0.0
397,0.0
448,0.0
449,59.99929412747067
450,59.99929412747067
587,0.0
588,49.81568022908363
589,49.81568022908363
590,0.0
120,43200.0
2,1, 1, 1, 0, 2, 0.00,60.00,Sunday
7,5.3
314,18.17281208254691
315,0.0
379,0.0
393,0.0
394,0.0
396,0.0
397,0.0
448,0.0
449,59.99929412747067
450,59.99929412747067
587,0.0
588,49.81568022908363
589,49.81568022908363
590,0.0
120,43200.0
2,1, 1, 1, 0, 3, 0.00,60.00,Sunday
7,6.2
314,18.158779561549495
315,0.0
379,0.0
393,0.0
394,0.0
396,0.0
397,0.0
448,0.0
449,59.99929412747067
450,59.99929412747067
587,0.0
588,49.81568022908363
589,49.81568022908363
590,0.0
120,43200.0
2,1, 1, 1, 0, 4, 0.00,60.00,Sunday
7,6.8
314,18.13523077115096
315,0.0
379,0.0
393,0.0
394,0.0
396,0.0
397,0.0
448,0.0
449,59.99929412747067
450,59.99929412747067
587,0.0
588,49.81568022908363
589,49.81568022908363
590,0.0
120,43200.0
2,1, 1, 1, 0, 5, 0.00,60.00,Sunday
7,7.2
314,18.096293222055189
315,0.0
379,0.0
393,0.0
394,0.0
396,0.0
397,0.0
448,0.0
449,59.99929412747067
450,59.99929412747067
587,0.0
588,49.81568022908363
589,49.81568022908363
590,0.0
120,43200.0
2,1, 1, 1, 0, 6, 0.00,60.00,Sunday
7,7.5
314,21.853619236389734
315,0.0
379,0.0
393,0.0
394,0.0
396,0.0
397,817.1269332365385
448,0.02881960474330357
449,59.941528892390547
450,52.246725377878039
587,1192.1307185547814
588,49.8983923226923
589,57.71244063600953
590,0.02881960474330357
120,4334870.586797212
2,1, 1, 1, 0, 7, 0.00,60.00,Sunday
7,7.5
314,22.150814443040848
315,0.0
379,0.0
393,0.0
394,0.0
396,0.0
397,798.6894989571161
448,0.029996940000000004
449,59.95179358576821
450,49.97062722480918
587,1259.8030267904505
588,49.9550805462706
589,60.0
590,0.029996940000000004
120,4600090.896445622
2,1, 1, 1, 0, 8, 0.00,60.00,Sunday
7,6.7
314,21.947103074548264
315,0.0
379,0.0
393,0.0
394,0.0
396,0.0
397,791.5050393247709
448,0.029996940000000004
449,59.96636752602571
450,50.018909249780197
587,1255.767058819532
588,49.98727637315778
589,59.99999999999999
590,0.029996940000000004
120,4700761.411750315
2,1, 1, 1, 0, 9, 0.00,60.00,Sunday
7,6.0
314,21.74191696142263
315,0.0
379,0.0
393,0.0
394,0.0
396,0.0
397,794.2323944582853
448,0.029996940000000004
449,59.97653541912093
450,49.97604861121188
587,1252.9524802527812
588,50.00973349629155
589,60.0
590,0.029996940000000004
120,4777028.928910012
2,1, 1, 1, 0,10, 0.00,60.00,Sunday
7,5.2
314,21.789618328666003
315,0.0
379,0.0
393,0.0
394,0.0
396,0.0
397,797.2053526748227
448,0.029996940000000004
449,59.98362931741949
450,49.93082110015496
587,1252.660425166207
588,50.01206438983181
589,59.99999999999999
590,0.029996940000000004
120,4761577.530598345
2,1, 1, 1, 0,11, 0.00,60.00,Sunday
7,5.2
314,20.836864994524498
315,0.0
379,0.0
393,0.0
394,0.0
396,0.0
397,762.8011358787672
448,0.029996940000000004
449,59.988578562321958
450,49.82938229160988
587,1254.3709807762248
588,49.998415047893818
589,60.0
590,0.029996940000000004
120,4746135.530794409
2,1, 1, 1, 0,12, 0.00,60.00,Sunday
7,5.2
314,20.878470170072747
315,0.0
379,0.0
393,0.0
394,0.0
396,0.0
397,805.6339822300224
448,0.029996940000000004
449,59.99203153332233
450,49.690472543345929
587,1262.017630953916
588,49.93741410715795
589,60.00000000000001
590,0.029996940000000004
120,4795263.471434098
2,1, 1, 1, 0,13, 0.00,60.00,Sunday
7,5.2
314,18.64956474513975
315,0.0
379,0.0
393,0.0
394,0.0
396,0.0
397,0.0
448,0.0
449,59.99337998320084
450,59.99337998320084
587,0.0
588,49.90668636220578
589,49.90668636220578
590,0.0
120,302400.0
2,1, 1, 1, 0,14, 0.00,60.00,Sunday
7,4.6
314,18.72747325027877
315,0.0
379,0.0
393,0.0
394,0.0
396,0.0
397,337.4996890244082
448,0.011998776000000003
449,59.99374576301737
450,55.669880414749119
587,508.5933757681556
588,49.870793899854579
589,53.926032828787949
590,0.011998776000000003
120,2097336.15276536
2,1, 1, 1, 0,15, 0.00,60.00,Sunday
7,4.1
314,19.685495028074855
315,0.0
379,0.0
393,0.0
394,0.0
396,0.0
397,553.4528574945339
448,0.019997960000000003
449,59.99500367805159
450,52.96764531838849
587,854.4500822511123
588,49.77597836449353
589,56.58891159171617
590,0.019997960000000003
120,3335220.2961040048
2,1, 1, 1, 0,16, 0.00,60.00,Sunday
7,3.5
314,20.401437383754577
315,0.0
379,0.0
393,0.0
394,0.0
396,0.0
397,834.464961674694
448,0.029996940000000004
449,59.99621339208058
450,49.669021631192759
587,1286.141905986878
588,49.74496692859363
589,60.0
590,0.029996940000000004
120,4853310.861552762
2,1, 1, 1, 0,17, 0.00,60.00,Sunday
7,3.2
314,21.72117723071422
315,0.0
379,0.0
393,0.0
394,0.0
396,0.0
397,824.6133469037798
448,0.029996940000000004
449,59.99735814911414
450,49.982590717448349
587,1281.001306251951
588,49.78597542350684
589,60.0
590,0.029996940000000004
120,4842004.702507024
2,1, 1, 1, 0,18, 0.00,60.00,Sunday
7,2.9
314,19.954158726197269
315,0.0
379,0.0
393,0.0
394,0.0
396,0.0
397,0.0
448,0.0
449,59.997805184677229
450,59.997805184677229
587,0.0
588,49.84627167951028
589,49.84627167951028
590,0.0
120,324000.0
2,1, 1, 1, 0,19, 0.00,60.00,Sunday
7,2.6
314,19.593724647392919
315,0.0
379,0.0
393,0.0
394,0.0
396,0.0
397,0.0
448,0.0
449,59.99780518467721
450,59.99780518467721
587,0.0
588,49.84627167951027
589,49.84627167951027
590,0.0
120,302400.0
2,1, 1, 1, 0,20, 0.00,60.00,Sunday
7,2.5
314,19.258868230390314
315,0.0
379,0.0
393,0.0
394,0.0
396,0.0
397,0.0
448,0.0
449,59.99780518467722
450,59.99780518467722
587,0.0
588,49.846271679510277
589,49.846271679510277
590,0.0
120,252000.0
2,1, 1, 1, 0,21, 0.00,60.00,Sunday
7,2.4
314,19.0119175401494
315,0.0
379,0.0
393,0.0
394,0.0
396,0.0
397,0.0
448,0.0
449,59.99780518467722
450,59.99780518467722
587,0.0
588,49.846271679510277
589,49.846271679510277
590,0.0
120,216000.0
2,1, 1, 1, 0,22, 0.00,60.00,Sunday
7,2.3
314,18.92278941550535
315,0.0
379,0.0
393,0.0
394,0.0
396,0.0
397,0.0
448,0.0
449,59.99780518467722
450,59.99780518467722
587,0.0
588,49.846271679510277
589,49.846271679510277
590,0.0
120,244800.0
2,1, 1, 1, 0,23, 0.00,60.00,Sunday
7,2.3
314,18.760420062292089
315,0.0
379,0.0
393,0.0
394,0.0
396,0.0
397,0.0
448,0.0
449,59.99780518467722
450,59.99780518467722
587,0.0
588,49.846271679510277
589,49.846271679510277
590,0.0
120,187200.0
2,1, 1, 1, 0,24, 0.00,60.00,Sunday
7,2.2
314,18.535486829877525
315,0.0
379,0.0
393,0.0
394,0.0
396,0.0
397,0.0
448,0.0
449,59.99780518467722
450,59.99780518467722
587,0.0
588,49.846271679510277
589,49.846271679510277
590,0.0
120,86400.0
2,2, 1, 2, 0, 1, 0.00,60.00,Monday
7,2.2
314,18.016098369075317
315,0.0
379,0.0
393,0.0
394,0.0
396,0.0
397,0.0
448,0.0
449,59.99780518467722
450,59.99780518467722
587,0.0
588,49.846271679510277
589,49.846271679510277
590,0.0
120,43200.0
2,2, 1, 2, 0, 2, 0.00,60.00,Monday
7,2.2
314,17.84041404332381
315,0.0
379,0.0
393,0.0
394,0.0
396,0.0
397,0.0
448,0.0
449,59.99780518467722
450,59.99780518467722
587,0.0
588,49.846271679510277
589,49.846271679510277
590,0.0
120,43200.0
2,2, 1, 2, 0, 3, 0.00,60.00,Monday
7,2.1
314,17.746032884981927
315,0.0
379,0.0
393,0.0
394,0.0
396,0.0
397,0.0
448,0.0
449,59.99780518467722
450,59.99780518467722
587,0.0
588,49.846271679510277
589,49.846271679510277
590,0.0
120,43200.0
2,2, 1, 2, 0, 4, 0.00,60.00,Monday
7,2.1
314,17.680433159850027
315,0.0
379,0.0
393,0.0
394,0.0
396,0.0
397,0.0
448,0.0
449,59.99780518467722
450,59.99780518467722
587,0.0
588,49.846271679510277
589,49.846271679510277
590,0.0
120,43200.0
2,2, 1, 2, 0, 5, 0.00,60.00,Monday
7,2.1
314,17.59962584052225
315,0.0
379,0.0
393,0.0
394,0.0
396,0.0
397,0.0
448,0.0
449,59.99780518467722
450,59.99780518467722
587,0.0
588,49.846271679510277
589,49.846271679510277
590,0.0
120,43200.0
2,2, 1, 2, 0, 6, 0.00,60.00,Monday
7,2.0
314,21.751037381996118
315,0.0
379,0.0
393,0.0
394,0.0
396,0.0
397,1026.9418170985746
448,0.03532972933333334
449,59.934014232005079
450,50.119809117269479
587,1457.3770204048305
588,49.932831271433489
589,59.852105353363857
590,0.03532972933333334
120,5289757.273457389
2,2, 1, 2, 0, 7, 0.00,60.00,Monday
7,2.0
314,21.971798648799579
315,0.0
379,0.0
393,0.0
394,0.0
396,0.0
397,1019.5699211013175
448,0.04257378203125001
449,59.88992350171828
450,50.51287661164962
587,1718.649955372321
588,50.16154251824311
589,59.83508870649338
590,0.04257378203125001
120,6388739.839340355
2,2, 1, 2, 0, 8, 0.00,60.00,Monday
7,2.0
314,21.706889327669797
315,0.0
379,0.0
393,0.0
394,0.0
396,0.0
397,792.0113808003929
448,0.029996940000000004
449,59.90947350359621
450,49.943063044110278
587,1230.7301203717564
588,50.18708732208244
589,60.0
590,0.029996940000000004
120,4783428.433338323
2,2, 1, 2, 0, 9, 0.00,60.00,Monday
7,1.9
314,20.19439614586326
315,0.0
379,0.0
393,0.0
394,0.0
396,0.0
397,840.4155431790172
448,0.03529327471875001
449,59.937945602355238
450,49.87478020372207
587,1458.5972638034366
588,50.11748466358383
589,60.0
590,0.03529327471875001
120,5553350.149692372
2,2, 1, 2, 0,10, 0.00,60.00,Monday
7,1.9
314,20.083024676037327
315,0.0
379,0.0
393,0.0
394,0.0
396,0.0
397,901.7916674256053
448,0.03382467453125
449,59.95954274509166
450,49.72189176633456
587,1409.5242439028693
588,50.03316248220985
589,60.00000000000001
590,0.03382467453125
120,5304687.27805033
2,2, 1, 2, 0,11, 0.00,60.00,Monday
7,1.9
314,20.155716311847976
315,0.0
379,0.0
393,0.0
394,0.0
396,0.0
397,811.8694038436561
448,0.029996940000000004
449,59.97244614134685
450,49.59711152000671
587,1262.359584896838
588,49.93468625424951
589,60.0
590,0.029996940000000004
120,4738894.505628617
2,2, 1, 2, 0,12, 0.00,60.00,Monday
7,1.9
314,20.284014267014084
315,0.0
379,0.0
393,0.0
394,0.0
396,0.0
397,805.6043803207176
448,0.029996940000000004
449,59.98077632512579
450,49.66671378628517
587,1271.2781654042142
588,49.86354023504493
589,59.99999999999999
590,0.029996940000000004
120,4814201.395455171
2,2, 1, 2, 0,13, 0.00,60.00,Monday
7,1.9
314,20.340841888247508
315,0.0
379,0.0
393,0.0
394,0.0
396,0.0
397,801.5833696394196
448,0.029996940000000004
449,59.98658809714017
450,49.730426529608198
587,1274.9809654849025
588,49.834001817484118
589,60.0
590,0.029996940000000004
120,4885131.475745649
2,2, 1, 2, 0,14, 0.00,60.00,Monday
7,1.6
314,20.164661598068404
315,0.0
379,0.0
393,0.0
394,0.0
396,0.0
397,799.1034562836388
448,0.029996940000000004
449,59.99064283288713
450,49.76163897411499
587,1275.8024740509034
588,49.82744837024448
589,60.00000000000001
590,0.029996940000000004
120,4844888.906583252
2,2, 1, 2, 0,15, 0.00,60.00,Monday
7,1.3
314,20.069939731486277
315,0.0
379,0.0
393,0.0
394,0.0
396,0.0
397,823.8486380159543
448,0.031090578437500007
449,59.99351397158771
450,49.774590531150618
587,1322.0558217642351
588,49.82945170573868
589,59.99999999999999
590,0.031090578437500007
120,5004200.958351246
2,2, 1, 2, 0,16, 0.00,60.00,Monday
7,1.0
314,20.072703170909734
315,0.0
379,0.0
393,0.0
394,0.0
396,0.0
397,857.7634079722671
448,0.03257480203125
449,59.99557046134812
450,49.82420829988766
587,1383.5520748934139
588,49.841329975109129
589,60.0
590,0.03257480203125
120,5189587.46961629
2,2, 1, 2, 0,17, 0.00,60.00,Monday
7,0.9
314,20.070776253076983
315,0.0
379,0.0
393,0.0
394,0.0
396,0.0
397,850.8206655667683
448,0.03226233390625
449,59.99699883099123
450,49.81452180604768
587,1368.4070914313922
588,49.85522604598809
589,60.0
590,0.03226233390625
120,5156665.529153012
2,2, 1, 2, 0,18, 0.00,60.00,Monday
7,0.7
314,20.24833609426414
315,0.0
379,0.0
393,0.0
394,0.0
396,0.0
397,799.3190256453759
448,0.029996940000000004
449,59.99793549066957
450,49.71526530757247
587,1273.3485616389214
588,49.84702403404837
589,59.99999999999999
590,0.029996940000000004
120,4944054.821900117
2,2, 1, 2, 0,19, 0.00,60.00,Monday
7,0.6
314,20.777075748318969
315,0.0
379,0.0
393,0.0
394,0.0
396,0.0
397,404.1518970476088
448,0.014998470000000002
449,59.99845366646543
450,54.88788272352778
587,637.3908242326941
588,49.83569659537297
589,54.917900677857769
590,0.014998470000000002
120,2647406.967237699
2,2, 1, 2, 0,20, 0.00,60.00,Monday
7,0.6
314,20.48347844183345
315,0.0
379,0.0
393,0.0
394,0.0
396,0.0
397,391.3231365481954
448,0.014998470000000002
449,59.998658982539399
450,54.828695498213978
587,637.9385523707538
588,49.82919918391804
589,54.91577267633463
590,0.014998470000000002
120,2584578.788534714
2,2, 1, 2, 0,21, 0.00,60.00,Monday
7,0.6
314,19.56482495974097
315,0.0
379,0.0
393,0.0
394,0.0
396,0.0
397,0.0
448,0.0
449,59.99880338300355
450,59.99880338300355
587,0.0
588,49.818565332362869
589,49.818565332362869
590,0.0
120,259200.0
2,2, 1, 2, 0,22, 0.00,60.00,Monday
7,0.6
314,19.262709977519014
315,0.0
379,0.0
393,0.0
394,0.0
396,0.0
397,0.0
448,0.0
449,59.99880338300355
450,59.99880338300355
587,0.0
588,49.818565332362869
589,49.818565332362869
590,0.0
120,324000.0
2,2, 1, 2, 0,23, 0.00,60.00,Monday
7,0.8
314,18.764049318385504
315,0.0
379,0.0
393,0.0
394,0.0
396,0.0
397,0.0
448,0.0
449,59.99880338300355
450,59.99880338300355
587,0.0
588,49.818565332362869
589,49.818565332362869
590,0.0
120,216000.0
2,2, 1, 2, 0,24, 0.00,60.00,Monday
7,0.9
314,18.496466940258917
315,0.0
379,0.0
393,0.0
394,0.0
396,0.0
397,0.0
448,0.0
449,59.99880338300355
450,59.99880338300355
587,0.0
588,49.818565332362869
589,49.818565332362869
590,0.0
120,57600.0
2,3, 1, 3, 0, 1, 0.00,60.00,Tuesday
7,1.1
314,17.992069219173176
315,0.0
379,0.0
393,0.0
394,0.0
396,0.0
397,0.0
448,0.0
449,59.99880338300355
450,59.99880338300355
587,0.0
588,49.818565332362869
589,49.818565332362869
590,0.0
120,43200.0
2,3, 1, 3, 0, 2, 0.00,60.00,Tuesday
7,0.9
314,17.836893728155663
315,0.0
379,0.0
393,0.0
394,0.0
396,0.0
397,0.0
448,0.0
449,59.99880338300355
450,59.99880338300355
587,0.0
588,49.818565332362869
589,49.818565332362869
590,0.0
120,43200.0
2,3, 1, 3, 0, 3, 0.00,60.00,Tuesday
7,0.6
314,17.758789162563514
315,0.0
379,0.0
393,0.0
394,0.0
396,0.0
397,0.0
448,0.0
449,59.99880338300355
450,59.99880338300355
587,0.0
588,49.818565332362869
589,49.818565332362869
590,0.0
120,43200.0
2,3, 1, 3, 0, 4, 0.00,60.00,Tuesday
7,0.4
314,17.641622968072406
315,0.0
379,0.0
393,0.0
394,0.0
396,0.0
397,0.0
448,0.0
449,59.99880338300355
450,59.99880338300355
587,0.0
588,49.818565332362869
589,49.818565332362869
590,0.0
120,43200.0
2,3, 1, 3, 0, 5, 0.00,60.00,Tuesday
7,0.6
314,17.558433944356577
315,0.0
379,0.0
393,0.0
394,0.0
396,0.0
397,0.0
448,0.0
449,59.99880338300355
450,59.99880338300355
587,0.0
588,49.818565332362869
589,49.818565332362869
590,0.0
120,43200.0
2,3, 1, 3, 0, 6, 0.00,60.00,Tuesday
7,0.9
314,21.670476015501675
315,0.0
379,0.0
393,0.0
394,0.0
396,0.0
397,1032.2784927232767
448,0.03532972933333334
449,59.9317627009069
450,50.09941105096893
587,1459.6663678514005
588,49.90754662970511
589,59.84508662007296
590,0.03532972933333334
120,5297998.924265044
2,3, 1, 3, 0, 7, 0.00,60.00,Tuesday
7,1.1
314,21.971142471009828
315,0.0
379,0.0
393,0.0
394,0.0
396,0.0
397,1019.9088219949765
448,0.042339430937500008
449,59.8835277600424
450,50.486637813764449
587,1710.8665731157525
588,50.13684022399157
589,59.82281213104463
590,0.042339430937500008
120,6360719.663216708
2,3, 1, 3, 0, 8, 0.00,60.00,Tuesday
7,0.9
314,22.10844654303346
315,0.0
379,0.0
393,0.0
394,0.0
396,0.0
397,958.7764034637609
448,0.03773052609375001
449,59.907808528468709
450,50.30947085835007
587,1541.131078778497
588,50.23084593192518
589,60.00000000000001
590,0.03773052609375001
120,5900871.883602589
2,3, 1, 3, 0, 9, 0.00,60.00,Tuesday
7,0.8
314,19.98468507802212
315,0.0
379,0.0
393,0.0
394,0.0
396,0.0
397,793.9854497550782
448,0.036897277760416669
449,59.92960449786974
450,51.82432602859984
587,1493.9337097097396
588,50.277641283861559
589,58.35094088093227
590,0.036897277760416669
120,5680561.354955063
2,3, 1, 3, 0,10, 0.00,60.00,Tuesday
7,0.6
314,20.088826564746726
315,0.0
379,0.0
393,0.0
394,0.0
396,0.0
397,1003.7322806936018
448,0.03866793046875001
449,59.95414146887544
450,49.96906892902708
587,1581.4203805255547
588,50.2184617380643
589,60.00000000000001
590,0.03866793046875001
120,5923513.369891997
2,3, 1, 3, 0,11, 0.00,60.00,Tuesday
7,1.1
314,20.07426664675276
315,0.0
379,0.0
393,0.0
394,0.0
396,0.0
397,825.9367001831844
448,0.030778110312500007
449,59.969881969778587
450,49.654525221067448
587,1273.4887348453894
588,50.1037951724902
589,60.0
590,0.030778110312500007
120,4778959.445443402
2,3, 1, 3, 0,12, 0.00,60.00,Tuesday
7,1.6
314,20.156264034761234
315,0.0
379,0.0
393,0.0
394,0.0
396,0.0
397,805.0488159388723
448,0.029996940000000004
449,59.97908237422132
450,49.6553524126043
587,1255.8599777406596
588,49.98653513908029
589,60.0
590,0.029996940000000004
120,4758695.919866375
2,3, 1, 3, 0,13, 0.00,60.00,Tuesday
7,2.1
314,20.340696449738144
315,0.0
379,0.0
393,0.0
394,0.0
396,0.0
397,802.8651550736612
448,0.029996940000000004
449,59.9854062676966
450,49.691419159040957
587,1265.209823161709
588,49.91194915652897
589,60.00000000000001
590,0.029996940000000004
120,4849955.363382152
2,3, 1, 3, 0,14, 0.00,60.00,Tuesday
7,1.7
314,20.225728468989844
315,0.0
379,0.0
393,0.0
394,0.0
396,0.0
397,800.8075981332198
448,0.029996940000000004
449,59.9898182984629
450,49.74268915833904
587,1270.060809226124
588,49.873251455412887
589,59.99999999999999
590,0.029996940000000004
120,4824218.9132140469
2,3, 1, 3, 0,15, 0.00,60.00,Tuesday
7,1.4
314,20.075366458581816
315,0.0
379,0.0
393,0.0
394,0.0
396,0.0
397,801.0850387884567
448,0.029996940000000004
449,59.99289646787844
450,49.7149398330551
587,1273.0892007782013
588,49.84909303852024
589,60.0
590,0.029996940000000004
120,4827921.122801525
2,3, 1, 3, 0,16, 0.00,60.00,Tuesday
7,1.0
314,20.072719705116819
315,0.0
379,0.0
393,0.0
394,0.0
396,0.0
397,837.6517925991633
448,0.031559280625000008
449,59.99508691137634
450,49.74991743556383
587,1341.4213716136726
588,49.83373531454686
589,60.00000000000001
590,0.031559280625000008
120,5037916.937809221
2,3, 1, 3, 0,17, 0.00,60.00,Tuesday
7,1.0
314,20.07295907704083
315,0.0
379,0.0
393,0.0
394,0.0
396,0.0
397,821.41658783003
448,0.030856227343750009
449,59.996622961969048
450,49.72182420958084
587,1312.8773183779217
588,49.823350381854137
589,59.99999999999999
590,0.030856227343750009
120,4956758.346160518
2,3, 1, 3, 0,18, 0.00,60.00,Tuesday
7,1.0
314,20.428325976419445
315,0.0
379,0.0
393,0.0
394,0.0
396,0.0
397,806.9376073075548
448,0.029996940000000004
449,59.99765677158683
450,49.71241875731786
587,1278.1337279145025
588,49.808851159563719
589,60.0
590,0.029996940000000004
120,4961281.4204922099
2,3, 1, 3, 0,19, 0.00,60.00,Tuesday
7,1.0
314,20.91349816533459
315,0.0
379,0.0
393,0.0
394,0.0
396,0.0
397,480.92151057153708
448,0.017998164000000005
449,59.99825009630587
450,53.85953232496064
587,766.8886220668494
588,49.80879441820708
589,55.92355061497077
590,0.017998164000000005
120,3113599.039440658
2,3, 1, 3, 0,20, 0.00,60.00,Tuesday
7,1.0
314,20.587552574633518
315,0.0
379,0.0
393,0.0
394,0.0
396,0.0
397,378.472561950509
448,0.014998470000000002
449,59.998531758125519
450,54.830372337810718
587,639.3860767641545
588,49.805497409898389
589,54.903618302970759
590,0.014998470000000002
120,2589789.8763509567
2,3, 1, 3, 0,21, 0.00,60.00,Tuesday
7,1.0
314,19.716702357744823
315,0.0
379,0.0
393,0.0
394,0.0
396,0.0
397,0.0
448,0.0
449,59.99868985808648
450,59.99868985808648
587,0.0
588,49.79728370076284
589,49.79728370076284
590,0.0
120,259200.0
2,3, 1, 3, 0,22, 0.00,60.00,Tuesday
7,1.0
314,19.441191793060328
315,0.0
379,0.0
393,0.0
394,0.0
396,0.0
397,0.0
448,0.0
449,59.99868985808648
450,59.99868985808648
587,0.0
588,49.79728370076284
589,49.79728370076284
590,0.0
120,324000.0
2,3, 1, 3, 0,23, 0.00,60.00,Tuesday
7,1.4
314,18.967789720924487
315,0.0
379,0.0
393,0.0
394,0.0
396,0.0
397,0.0
448,0.0
449,59.99868985808648
450,59.99868985808648
587,0.0
588,49.79728370076284
589,49.79728370076284
590,0.0
120,216000.0
2,3, 1, 3, 0,24, 0.00,60.00,Tuesday
7,1.7
314,18.680365156619918
315,0.0
379,0.0
393,0.0
394,0.0
396,0.0
397,0.0
448,0.0
449,59.99868985808648
450,59.99868985808648
587,0.0
588,49.79728370076284
589,49.79728370076284
590,0.0
120,57600.0
2,4, 1, 4, 0, 1, 0.00,60.00,Wednesday
7,2.1
314,18.256760835450778
315,0.0
379,0.0
393,0.0
394,0.0
396,0.0
397,0.0
448,0.0
449,59.99868985808648
450,59.99868985808648
587,0.0
588,49.79728370076284
589,49.79728370076284
590,0.0
120,43200.0
2,4, 1, 4, 0, 2, 0.00,60.00,Wednesday
7,1.4
314,18.038907107079
315,0.0
379,0.0
393,0.0
394,0.0
396,0.0
397,0.0
448,0.0
449,59.99868985808648
450,59.99868985808648
587,0.0
588,49.79728370076284
589,49.79728370076284
590,0.0
120,43200.0
2,4, 1, 4, 0, 3, 0.00,60.00,Wednesday
7,0.8
314,17.916503003312383
315,0.0
379,0.0
393,0.0
394,0.0
396,0.0
397,0.0
448,0.0
449,59.99868985808648
450,59.99868985808648
587,0.0
588,49.79728370076284
589,49.79728370076284
590,0.0
120,43200.0
2,4, 1, 4, 0, 4, 0.00,60.00,Wednesday
7,0.1
314,17.806193117732378
315,0.0
379,0.0
393,0.0
394,0.0
396,0.0
397,0.0
448,0.0
449,59.99868985808648
450,59.99868985808648
587,0.0
588,49.79728370076284
589,49.79728370076284
590,0.0
120,43200.0
2,4, 1, 4, 0, 5, 0.00,60.00,Wednesday
7,-0.3
314,17.690709670838545
315,0.0
379,0.0
393,0.0
394,0.0
396,0.0
397,0.0
448,0.0
449,59.99868985808648
450,59.99868985808648
587,0.0
588,49.79728370076284
589,49.79728370076284
590,0.0
120,43200.0
2,4, 1, 4, 0, 6, 0.00,60.00,Wednesday
7,-0.7
314,21.77970371786065
315,0.0
379,0.0
393,0.0
394,0.0
396,0.0
397,1026.56351676945
448,0.035277651312500008
449,59.93376793563304
450,50.122673141217358
587,1460.7028493092735
588,49.89450057876108
589,59.85043604178936
590,0.035277651312500008
120,5301730.257513385
2,4, 1, 4, 0, 7, 0.00,60.00,Wednesday
7,-1.1
314,21.976627798385324
315,0.0
379,0.0
393,0.0
394,0.0
396,0.0
397,1015.4028234983637
448,0.04226131390625
449,59.901838618677988
450,50.509060457366448
587,1717.299726821575
588,50.133960442669259
589,59.8654072860698
590,0.04226131390625
120,6383879.01655767
2,4, 1, 4, 0, 8, 0.00,60.00,Wednesday
7,-1.4
314,22.107894685350183
315,0.0
379,0.0
393,0.0
394,0.0
396,0.0
397,965.4687327092837
448,0.03804299421875001
449,59.9240419556246
450,50.33244671019418
587,1552.7397952638592
588,50.23810950272684
589,59.99999999999999
590,0.03804299421875001
120,5942663.262949893
2,4, 1, 4, 0, 9, 0.00,60.00,Wednesday
7,-1.8
314,19.95757311981431
315,0.0
379,0.0
393,0.0
394,0.0
396,0.0
397,872.8744962766608
448,0.04085520734374999
449,59.93601260062438
450,51.74431198346039
587,1645.0837714419922
588,50.310060174547228
589,58.56639879577542
590,0.04085520734374999
120,6224701.577191172
2,4, 1, 4, 0,10, 0.00,60.00,Wednesday
7,-2.1
314,20.098241792058415
315,0.0
379,0.0
393,0.0
394,0.0
396,0.0
397,1094.8330838811285
448,0.0432768353125
449,59.957485014905888
450,50.21075350287079
587,1750.8614267073413
588,50.32384855493664
589,60.0
590,0.0432768353125
120,6533501.136146428
2,4, 1, 4, 0,11, 0.00,60.00,Wednesday
7,-2.4
314,20.081460064199935
315,0.0
379,0.0
393,0.0
394,0.0
396,0.0
397,876.181972897909
448,0.033043504218750009
449,59.97323605620569
450,49.77386144783375
587,1349.8106669013073
588,50.22994436194392
589,60.0
590,0.033043504218750009
120,5053718.400844706
2,4, 1, 4, 0,12, 0.00,60.00,Wednesday
7,-2.6
314,20.078125971366423
315,0.0
379,0.0
393,0.0
394,0.0
396,0.0
397,890.2940697489239
448,0.033980908593750008
449,59.98209108077501
450,49.856046313033797
587,1404.3685643189444
588,50.115353278775938
589,60.0
590,0.033980908593750008
120,5293326.8315482
2,4, 1, 4, 0,13, 0.00,60.00,Wednesday
7,-2.9
314,20.07837686443405
315,0.0
379,0.0
393,0.0
394,0.0
396,0.0
397,896.6748894906212
448,0.034293376718750007
449,59.988108210379568
450,49.88773758577345
587,1425.8002974814835
588,50.05588905562783
589,59.99999999999999
590,0.034293376718750007
120,5428081.070933341
2,4, 1, 4, 0,14, 0.00,60.00,Wednesday
7,-3.5
314,20.083235243439576
315,0.0
379,0.0
393,0.0
394,0.0
396,0.0
397,973.3210689119785
448,0.037886760156250007
449,59.99227728700834
450,50.06701810020061
587,1575.3281479453233
588,50.05508425344033
589,60.0
590,0.037886760156250007
120,5923181.332603164
2,4, 1, 4, 0,15, 0.00,60.00,Wednesday
7,-4.2
314,20.08618610779837
315,0.0
379,0.0
393,0.0
394,0.0
396,0.0
397,1022.7838393409373
448,0.040308388125000007
449,59.99516456332851
450,50.19079382152615
587,1666.8368776229345
588,50.10962071827192
589,60.00000000000001
590,0.040308388125000007
120,6245412.759442564
2,4, 1, 4, 0,16, 0.00,60.00,Wednesday
7,-4.8
314,20.09114385538779
315,0.0
379,0.0
393,0.0
394,0.0
396,0.0
397,1070.4464072818437
448,0.04273001609375
449,59.997058895038367
450,50.314699689940159
587,1751.9174419845751
588,50.19398953352023
589,60.00000000000001
590,0.04273001609375
120,6515702.791144471
2,4, 1, 4, 0,17, 0.00,60.00,Wednesday
7,-5.1
314,20.089662743845478
315,0.0
379,0.0
393,0.0
394,0.0
396,0.0
397,1076.0958668844657
448,0.04312060125
449,59.9982416686496
450,50.338474003984249
587,1753.5023572723965
588,50.27409573489452
589,60.00000000000001
590,0.04312060125
120,6543008.486180628
2,4, 1, 4, 0,18, 0.00,60.00,Wednesday
7,-5.5
314,20.083739033426043
315,0.0
379,0.0
393,0.0
394,0.0
396,0.0
397,971.9886760049108
448,0.037886760156250007
449,59.998921667651398
450,50.083656157966448
587,1540.6541122675362
588,50.27418242542268
589,59.99999999999999
590,0.037886760156250007
120,5906354.80416313
2,4, 1, 4, 0,19, 0.00,60.00,Wednesday
7,-5.8
314,20.521305485773629
315,0.0
379,0.0
393,0.0
394,0.0
396,0.0
397,403.8605735843577
448,0.014998470000000002
449,59.999232133329417
450,54.857736679208517
587,614.0497721644854
588,50.201747878972998
589,55.09770729107535
590,0.014998470000000002
120,2563379.179792147
2,4, 1, 4, 0,20, 0.00,60.00,Wednesday
7,-5.9
314,20.642716436963896
315,0.0
379,0.0
393,0.0
394,0.0
396,0.0
397,405.42502526639046
448,0.014998470000000002
449,59.999363384628
450,54.87405908731241
587,618.2013715870528
588,50.13455251658826
589,55.063644819955587
590,0.014998470000000002
120,2513524.93771339
2,4, 1, 4, 0,21, 0.00,60.00,Wednesday
7,-6.1
314,19.005741696581656
315,0.0
379,0.0
393,0.0
394,0.0
396,0.0
397,0.0
448,0.0
449,59.99940579293633
450,59.99940579293633
587,0.0
588,50.11212259463992
589,50.11212259463992
590,0.0
120,259200.0
2,4, 1, 4, 0,22, 0.00,60.00,Wednesday
7,-6.2
314,18.738898572520126
315,0.0
379,0.0
393,0.0
394,0.0
396,0.0
397,0.0
448,0.0
449,59.99940579293633
450,59.99940579293633
587,0.0
588,50.11212259463993
589,50.11212259463993
590,0.0
120,324000.0
2,4, 1, 4, 0,23, 0.00,60.00,Wednesday
7,-6.2
314,18.269348537085457
315,0.0
379,0.0
393,0.0
394,0.0
396,0.0
397,0.0
448,0.0
449,59.99940579293633
450,59.99940579293633
587,0.0
588,50.11212259463993
589,50.11212259463993
590,0.0
120,216000.0
2,4, 1, 4, 0,24, 0.00,60.00,Wednesday
7,-6.3
314,17.96370251048898
315,0.0
379,0.0
393,0.0
394,0.0
396,0.0
397,0.0
448,0.0
449,59.99940579293633
450,59.99940579293633
587,0.0
588,50.11212259463993
589,50.11212259463993
590,0.0
120,57600.0
2,5, 1, 5, 0, 1, 0.00,60.00,Thursday
7,-6.3
314,17.461248609478557
315,0.0
379,0.0
393,0.0
394,0.0
396,0.0
397,0.0
448,0.0
449,59.99940579293633
450,59.99940579293633
587,0.0
588,50.11212259463993
589,50.11212259463993
590,0.0
120,43200.0
2,5, 1, 5, 0, 2, 0.00,60.00,Thursday
7,-6.4
314,17.30851164916298
315,0.0
379,0.0
393,0.0
394,0.0
396,0.0
397,0.0
448,0.0
449,59.99940579293633
450,59.99940579293633
587,0.0
588,50.11212259463993
589,50.11212259463993
590,0.0
120,43200.0
2,5, 1, 5, 0, 3, 0.00,60.00,Thursday
7,-6.5
314,17.2068708855845
315,0.0
379,0.0
393,0.0
394,0.0
396,0.0
397,0.0
448,0.0
449,59.99940579293633
450,59.99940579293633
587,0.0
588,50.11212259463993
589,50.11212259463993
590,0.0
120,43200.0
2,5, 1, 5, 0, 4, 0.00,60.00,Thursday
7,-6.6
314,17.085731828267428
315,0.0
379,0.0
393,0.0
394,0.0
396,0.0
397,0.0
448,0.0
449,59.99940579293633
450,59.99940579293633
587,0.0
588,50.11212259463993
589,50.11212259463993
590,0.0
120,43200.0
2,5, 1, 5, 0, 5, 0.00,60.00,Thursday
7,-6.4
314,16.976331477850026
315,0.0
379,0.0
393,0.0
394,0.0
396,0.0
397,0.0
448,0.0
449,59.99940579293633
450,59.99940579293633
587,0.0
588,50.11212259463993
589,50.11212259463993
590,0.0
120,43200.0
2,5, 1, 5, 0, 6, 0.00,60.00,Thursday
7,-6.3
314,21.347003552464199
315,0.0
379,0.0
393,0.0
394,0.0
396,0.0
397,1202.1955159428712
448,0.04208276069196429
449,59.95496056865863
450,50.35270900210824
587,1706.3259099672416
588,50.17657403701631
589,59.88946882357698
590,0.04208276069196429
120,6185973.275882071
2,5, 1, 5, 0, 7, 0.00,60.00,Thursday
7,-6.1
314,21.618737114082376
315,0.0
379,0.0
393,0.0
394,0.0
396,0.0
397,1159.1779895069358
448,0.049994899999999998
449,59.94590125442869
450,50.832681030353977
587,1995.8149591422857