Program Version,EnergyPlus, Version 8.9.0-40101eaafd, YMD=2018.12.16 20:33
1,5,Environment Title[],Latitude[deg],Longitude[deg],Time Zone[],Elevation[m]
2,8,Day of Simulation[],Month[],Day of Month[],DST Indicator[1=yes 0=no],Hour[],StartMinute[],EndMinute[],DayType
3,5,Cumulative Day of Simulation[],Month[],Day of Month[],DST Indicator[1=yes 0=no],DayType  ! When Daily Meters Requested
4,2,Cumulative Days of Simulation[],Month[]  ! When Monthly Meters Requested
5,1,Cumulative Days of Simulation[] ! When Run Period Meters Requested
6,1,Calendar Year of Simulation[] ! When Annual Meters Requested
163,1,DistrictHeating:Facility [J] !Hourly
End of Data Dictionary
1,ANNUAL SIM 1,  59.65,  17.95,   1.00,  61.00
2,1, 1,28, 0, 1, 0.00,60.00,Saturday
163,6733545.4750699619
2,1, 1,28, 0, 2, 0.00,60.00,Saturday
163,5596622.957136665
2,1, 1,28, 0, 3, 0.00,60.00,Saturday
163,5726344.041063165
2,1, 1,28, 0, 4, 0.00,60.00,Saturday
163,5531965.920020144
2,1, 1,28, 0, 5, 0.00,60.00,Saturday
163,5485434.314769628
2,1, 1,28, 0, 6, 0.00,60.00,Saturday
163,5383930.585305469
2,1, 1,28, 0, 7, 0.00,60.00,Saturday
163,5326249.388856129
2,1, 1,28, 0, 8, 0.00,60.00,Saturday
163,5267689.330061684
2,1, 1,28, 0, 9, 0.00,60.00,Saturday
163,5180616.867801177
2,1, 1,28, 0,10, 0.00,60.00,Saturday
163,5846364.1909355069
2,1, 1,28, 0,11, 0.00,60.00,Saturday
163,4658616.017542755
2,1, 1,28, 0,12, 0.00,60.00,Saturday
163,4587185.74509193
2,1, 1,28, 0,13, 0.00,60.00,Saturday
163,4393077.90271934
2,1, 1,28, 0,14, 0.00,60.00,Saturday
163,4476140.098274734
2,1, 1,28, 0,15, 0.00,60.00,Saturday
163,4601207.546698843
2,1, 1,28, 0,16, 0.00,60.00,Saturday
163,4761124.687752206
2,1, 1,28, 0,17, 0.00,60.00,Saturday
163,4862094.089653721
2,1, 1,28, 0,18, 0.00,60.00,Saturday
163,4886563.362696404
2,1, 1,28, 0,19, 0.00,60.00,Saturday
163,5665413.427703509
2,1, 1,28, 0,20, 0.00,60.00,Saturday
163,4884025.790393902
2,1, 1,28, 0,21, 0.00,60.00,Saturday
163,5120634.389890563
2,1, 1,28, 0,22, 0.00,60.00,Saturday
163,5145484.674154524
2,1, 1,28, 0,23, 0.00,60.00,Saturday
163,5211417.395386754
2,1, 1,28, 0,24, 0.00,60.00,Saturday
163,5204664.435691909
2,2, 1,29, 0, 1, 0.00,60.00,Sunday
163,5143551.811441847
2,2, 1,29, 0, 2, 0.00,60.00,Sunday
163,5143250.417121436
2,2, 1,29, 0, 3, 0.00,60.00,Sunday
163,5213805.550227057
2,2, 1,29, 0, 4, 0.00,60.00,Sunday
163,5280795.290491316
2,2, 1,29, 0, 5, 0.00,60.00,Sunday
163,5302924.189659732
2,2, 1,29, 0, 6, 0.00,60.00,Sunday
163,5311450.5198923959
2,2, 1,29, 0, 7, 0.00,60.00,Sunday
163,5321117.638633007
2,2, 1,29, 0, 8, 0.00,60.00,Sunday
163,5303428.507477448
2,2, 1,29, 0, 9, 0.00,60.00,Sunday
163,5273733.392138546
2,2, 1,29, 0,10, 0.00,60.00,Sunday
163,5126537.310792239
2,2, 1,29, 0,11, 0.00,60.00,Sunday
163,4985569.697727544
2,2, 1,29, 0,12, 0.00,60.00,Sunday
163,4840811.054878166
2,2, 1,29, 0,13, 0.00,60.00,Sunday
163,4783474.959489444
2,2, 1,29, 0,14, 0.00,60.00,Sunday
163,4810164.338169001
2,2, 1,29, 0,15, 0.00,60.00,Sunday
163,4975687.085159948
2,2, 1,29, 0,16, 0.00,60.00,Sunday
163,5103053.630233511
2,2, 1,29, 0,17, 0.00,60.00,Sunday
163,5096302.750861997
2,2, 1,29, 0,18, 0.00,60.00,Sunday
163,5006328.077651355
2,2, 1,29, 0,19, 0.00,60.00,Sunday
163,4892991.10101329
2,2, 1,29, 0,20, 0.00,60.00,Sunday
163,4869816.292608435
2,2, 1,29, 0,21, 0.00,60.00,Sunday
163,4874736.0074018989
2,2, 1,29, 0,22, 0.00,60.00,Sunday
163,4885266.647375079
2,2, 1,29, 0,23, 0.00,60.00,Sunday
163,4880108.293166628
2,2, 1,29, 0,24, 0.00,60.00,Sunday
163,4924739.82074167
2,3, 1,30, 0, 1, 0.00,60.00,Monday
163,4945592.075579576
2,3, 1,30, 0, 2, 0.00,60.00,Monday
163,5022839.364221284
2,3, 1,30, 0, 3, 0.00,60.00,Monday
163,5046843.131322697
2,3, 1,30, 0, 4, 0.00,60.00,Monday
163,5099314.421257817
2,3, 1,30, 0, 5, 0.00,60.00,Monday
163,5107779.678048441
2,3, 1,30, 0, 6, 0.00,60.00,Monday
163,5145794.430447253
2,3, 1,30, 0, 7, 0.00,60.00,Monday
163,5169113.181694508
2,3, 1,30, 0, 8, 0.00,60.00,Monday
163,5164308.822545114
2,3, 1,30, 0, 9, 0.00,60.00,Monday
163,5139896.464193722
2,3, 1,30, 0,10, 0.00,60.00,Monday
163,5011256.70522952
2,3, 1,30, 0,11, 0.00,60.00,Monday
163,4809792.573513785
2,3, 1,30, 0,12, 0.00,60.00,Monday
163,4606503.56864487
2,3, 1,30, 0,13, 0.00,60.00,Monday
163,4506765.064711793
2,3, 1,30, 0,14, 0.00,60.00,Monday
163,4506992.188646948
2,3, 1,30, 0,15, 0.00,60.00,Monday
163,4619470.521449298
2,3, 1,30, 0,16, 0.00,60.00,Monday
163,5514140.517703166
2,3, 1,30, 0,17, 0.00,60.00,Monday
163,4696386.9493860439
2,3, 1,30, 0,18, 0.00,60.00,Monday
163,4814271.474546218
2,3, 1,30, 0,19, 0.00,60.00,Monday
163,4702684.337232067
2,3, 1,30, 0,20, 0.00,60.00,Monday
163,4737510.734686534
2,3, 1,30, 0,21, 0.00,60.00,Monday
163,4718997.400135744
2,3, 1,30, 0,22, 0.00,60.00,Monday
163,4729152.715883647
2,3, 1,30, 0,23, 0.00,60.00,Monday
163,4723675.189662196
2,3, 1,30, 0,24, 0.00,60.00,Monday
163,4754067.713726759
2,4, 1,31, 0, 1, 0.00,60.00,Tuesday
163,4746834.658226351
2,4, 1,31, 0, 2, 0.00,60.00,Tuesday
163,4754281.198374283
2,4, 1,31, 0, 3, 0.00,60.00,Tuesday
163,4768598.594388075
2,4, 1,31, 0, 4, 0.00,60.00,Tuesday
163,4775124.378757472
2,4, 1,31, 0, 5, 0.00,60.00,Tuesday
163,4788776.419495574
2,4, 1,31, 0, 6, 0.00,60.00,Tuesday
163,4794888.501474991
2,4, 1,31, 0, 7, 0.00,60.00,Tuesday
163,4815456.356513165
2,4, 1,31, 0, 8, 0.00,60.00,Tuesday
163,4828275.360645409
2,4, 1,31, 0, 9, 0.00,60.00,Tuesday
163,4797716.082348415
2,4, 1,31, 0,10, 0.00,60.00,Tuesday
163,4696679.355776414
2,4, 1,31, 0,11, 0.00,60.00,Tuesday
163,4526785.560286207
2,4, 1,31, 0,12, 0.00,60.00,Tuesday
163,4397184.779456445
2,4, 1,31, 0,13, 0.00,60.00,Tuesday
163,4334503.94767176
2,4, 1,31, 0,14, 0.00,60.00,Tuesday
163,4402631.414035948
2,4, 1,31, 0,15, 0.00,60.00,Tuesday
163,4561385.162461022
2,4, 1,31, 0,16, 0.00,60.00,Tuesday
163,4749419.923757048
2,4, 1,31, 0,17, 0.00,60.00,Tuesday
163,4835453.8437442439
2,4, 1,31, 0,18, 0.00,60.00,Tuesday
163,4876244.694728646
2,4, 1,31, 0,19, 0.00,60.00,Tuesday
163,4867251.5613084
2,4, 1,31, 0,20, 0.00,60.00,Tuesday
163,4861074.945503119
2,4, 1,31, 0,21, 0.00,60.00,Tuesday
163,4828013.140478507
2,4, 1,31, 0,22, 0.00,60.00,Tuesday
163,4811903.000522485
2,4, 1,31, 0,23, 0.00,60.00,Tuesday
163,4796976.583149089
2,4, 1,31, 0,24, 0.00,60.00,Tuesday
163,4804418.327417234
2,5, 2, 1, 0, 1, 0.00,60.00,Wednesday
163,5005573.860907609
2,5, 2, 1, 0, 2, 0.00,60.00,Wednesday
163,5132609.303039176
2,5, 2, 1, 0, 3, 0.00,60.00,Wednesday
163,5169752.409463385
2,5, 2, 1, 0, 4, 0.00,60.00,Wednesday
163,5151568.608814334
2,5, 2, 1, 0, 5, 0.00,60.00,Wednesday
163,5101985.12688975
2,5, 2, 1, 0, 6, 0.00,60.00,Wednesday
163,5071058.582591225
2,5, 2, 1, 0, 7, 0.00,60.00,Wednesday
163,5013946.301046065
2,5, 2, 1, 0, 8, 0.00,60.00,Wednesday
163,4902423.641561698
2,5, 2, 1, 0, 9, 0.00,60.00,Wednesday
163,4658291.69725728
2,5, 2, 1, 0,10, 0.00,60.00,Wednesday
163,3099442.5972446335
2,5, 2, 1, 0,11, 0.00,60.00,Wednesday
163,2570602.43575443
2,5, 2, 1, 0,12, 0.00,60.00,Wednesday
163,2400646.473367707
2,5, 2, 1, 0,13, 0.00,60.00,Wednesday
163,2273719.432295157
2,5, 2, 1, 0,14, 0.00,60.00,Wednesday
163,2039324.2924737749
2,5, 2, 1, 0,15, 0.00,60.00,Wednesday
163,2512806.99720054
2,5, 2, 1, 0,16, 0.00,60.00,Wednesday
163,3578276.084598361
2,5, 2, 1, 0,17, 0.00,60.00,Wednesday
163,4214126.19736063
2,5, 2, 1, 0,18, 0.00,60.00,Wednesday
163,4451892.598010071
2,5, 2, 1, 0,19, 0.00,60.00,Wednesday
163,4556168.913773973
2,5, 2, 1, 0,20, 0.00,60.00,Wednesday
163,4638655.374734243
2,5, 2, 1, 0,21, 0.00,60.00,Wednesday
163,4715171.379760366
2,5, 2, 1, 0,22, 0.00,60.00,Wednesday
163,4778270.66961447
2,5, 2, 1, 0,23, 0.00,60.00,Wednesday
163,4857326.509056722
2,5, 2, 1, 0,24, 0.00,60.00,Wednesday
163,4922163.02393826
2,6, 2, 2, 0, 1, 0.00,60.00,Thursday
163,4994908.211063302
2,6, 2, 2, 0, 2, 0.00,60.00,Thursday
163,5067618.431244163
2,6, 2, 2, 0, 3, 0.00,60.00,Thursday
163,5147256.879303868
2,6, 2, 2, 0, 4, 0.00,60.00,Thursday
163,5204826.8047185209
2,6, 2, 2, 0, 5, 0.00,60.00,Thursday
163,5177916.499184426
2,6, 2, 2, 0, 6, 0.00,60.00,Thursday
163,5156071.906144979
2,6, 2, 2, 0, 7, 0.00,60.00,Thursday
163,5116296.303300517
2,6, 2, 2, 0, 8, 0.00,60.00,Thursday
163,5037022.876630742
2,6, 2, 2, 0, 9, 0.00,60.00,Thursday
163,4826143.157051178
2,6, 2, 2, 0,10, 0.00,60.00,Thursday
163,2949687.5313183178
2,6, 2, 2, 0,11, 0.00,60.00,Thursday
163,2705873.060760426
2,6, 2, 2, 0,12, 0.00,60.00,Thursday
163,2749082.8400958545
2,6, 2, 2, 0,13, 0.00,60.00,Thursday
163,2784236.7669576026
2,6, 2, 2, 0,14, 0.00,60.00,Thursday
163,2621901.8681747138
2,6, 2, 2, 0,15, 0.00,60.00,Thursday
163,3316247.8726068015
2,6, 2, 2, 0,16, 0.00,60.00,Thursday
163,4388112.41103244
2,6, 2, 2, 0,17, 0.00,60.00,Thursday
163,4851216.17267908
2,6, 2, 2, 0,18, 0.00,60.00,Thursday
163,4889163.539797154
2,6, 2, 2, 0,19, 0.00,60.00,Thursday
163,4809384.334463167
2,6, 2, 2, 0,20, 0.00,60.00,Thursday
163,4850009.315752657
2,6, 2, 2, 0,21, 0.00,60.00,Thursday
163,4871725.800879603
2,6, 2, 2, 0,22, 0.00,60.00,Thursday
163,4910702.086567071
2,6, 2, 2, 0,23, 0.00,60.00,Thursday
163,4821311.386215641
2,6, 2, 2, 0,24, 0.00,60.00,Thursday
163,4702298.232341989
2,7, 2, 3, 0, 1, 0.00,60.00,Friday
163,4588694.358368517
2,7, 2, 3, 0, 2, 0.00,60.00,Friday
163,4478126.29298552
2,7, 2, 3, 0, 3, 0.00,60.00,Friday
163,4347278.799137921
2,7, 2, 3, 0, 4, 0.00,60.00,Friday
163,4225049.206376881
2,7, 2, 3, 0, 5, 0.00,60.00,Friday
163,4264957.897505791
2,7, 2, 3, 0, 6, 0.00,60.00,Friday
163,4323333.483069243
2,7, 2, 3, 0, 7, 0.00,60.00,Friday
163,4370900.899337106
2,7, 2, 3, 0, 8, 0.00,60.00,Friday
163,4276313.015742168
2,7, 2, 3, 0, 9, 0.00,60.00,Friday
163,4102684.6322217548
2,7, 2, 3, 0,10, 0.00,60.00,Friday
163,3820420.3099074366
2,7, 2, 3, 0,11, 0.00,60.00,Friday
163,3480244.7940344295
2,7, 2, 3, 0,12, 0.00,60.00,Friday
163,3079124.1302571587
2,7, 2, 3, 0,13, 0.00,60.00,Friday
163,2789043.5454884937
2,7, 2, 3, 0,14, 0.00,60.00,Friday
163,2373082.310549509
2,7, 2, 3, 0,15, 0.00,60.00,Friday
163,2338720.516330999
2,7, 2, 3, 0,16, 0.00,60.00,Friday
163,3029572.0181906188
2,7, 2, 3, 0,17, 0.00,60.00,Friday
163,3585870.697996558
2,7, 2, 3, 0,18, 0.00,60.00,Friday
163,3802732.8322174346
2,7, 2, 3, 0,19, 0.00,60.00,Friday
163,3915764.3358502269
2,7, 2, 3, 0,20, 0.00,60.00,Friday
163,3906376.318718768
2,7, 2, 3, 0,21, 0.00,60.00,Friday
163,3861525.385095092
2,7, 2, 3, 0,22, 0.00,60.00,Friday
163,3796766.150918605
2,7, 2, 3, 0,23, 0.00,60.00,Friday
163,3742030.0932574078
2,7, 2, 3, 0,24, 0.00,60.00,Friday
163,3688869.1096885709
2,8, 2, 4, 0, 1, 0.00,60.00,Saturday
163,3636743.673942866
2,8, 2, 4, 0, 2, 0.00,60.00,Saturday
163,3638317.607692086
2,8, 2, 4, 0, 3, 0.00,60.00,Saturday
163,3647128.7804601846
2,8, 2, 4, 0, 4, 0.00,60.00,Saturday
163,3670653.0452832358
2,8, 2, 4, 0, 5, 0.00,60.00,Saturday
163,3670849.7468788737
2,8, 2, 4, 0, 6, 0.00,60.00,Saturday
163,3674774.3503530269
2,8, 2, 4, 0, 7, 0.00,60.00,Saturday
163,3693720.2042983446
2,8, 2, 4, 0, 8, 0.00,60.00,Saturday
163,3655520.7289362505
2,8, 2, 4, 0, 9, 0.00,60.00,Saturday
163,3542333.883038414
2,8, 2, 4, 0,10, 0.00,60.00,Saturday
163,3213983.8532149468
2,8, 2, 4, 0,11, 0.00,60.00,Saturday
163,2654038.895078384
2,8, 2, 4, 0,12, 0.00,60.00,Saturday
163,2335158.8637431997
2,8, 2, 4, 0,13, 0.00,60.00,Saturday
163,2098966.4119690225
2,8, 2, 4, 0,14, 0.00,60.00,Saturday
163,1806421.9697449224
2,8, 2, 4, 0,15, 0.00,60.00,Saturday
163,1958657.6584073227
2,8, 2, 4, 0,16, 0.00,60.00,Saturday
163,2709394.178113895
2,8, 2, 4, 0,17, 0.00,60.00,Saturday
163,3277005.9675959397
2,8, 2, 4, 0,18, 0.00,60.00,Saturday
163,3503515.013825818
2,8, 2, 4, 0,19, 0.00,60.00,Saturday
163,3656448.8429109675
2,8, 2, 4, 0,20, 0.00,60.00,Saturday
163,3753592.740152398
2,8, 2, 4, 0,21, 0.00,60.00,Saturday
163,3842512.403059087
2,8, 2, 4, 0,22, 0.00,60.00,Saturday
163,3923542.4567863636
2,8, 2, 4, 0,23, 0.00,60.00,Saturday
163,4011976.2221889176
2,8, 2, 4, 0,24, 0.00,60.00,Saturday
163,4069843.8218817145
2,9, 2, 5, 0, 1, 0.00,60.00,Sunday
163,4158138.3571193849
2,9, 2, 5, 0, 2, 0.00,60.00,Sunday
163,4156011.622990165
2,9, 2, 5, 0, 3, 0.00,60.00,Sunday
163,4133781.1937307498
2,9, 2, 5, 0, 4, 0.00,60.00,Sunday
163,4099080.5114647035
2,9, 2, 5, 0, 5, 0.00,60.00,Sunday
163,4118712.296146528
2,9, 2, 5, 0, 6, 0.00,60.00,Sunday
163,4160781.2566421327
2,9, 2, 5, 0, 7, 0.00,60.00,Sunday
163,4232051.361954275
2,9, 2, 5, 0, 8, 0.00,60.00,Sunday
163,4338949.711437138
2,9, 2, 5, 0, 9, 0.00,60.00,Sunday
163,4413632.9971897569
2,9, 2, 5, 0,10, 0.00,60.00,Sunday
163,4391295.5688782739
2,9, 2, 5, 0,11, 0.00,60.00,Sunday
163,3180415.1919643979
2,9, 2, 5, 0,12, 0.00,60.00,Sunday
163,2849964.0674574428
2,9, 2, 5, 0,13, 0.00,60.00,Sunday
163,2716723.877322664
2,9, 2, 5, 0,14, 0.00,60.00,Sunday
163,2304592.0769590616
2,9, 2, 5, 0,15, 0.00,60.00,Sunday
163,2306492.9649942109
2,9, 2, 5, 0,16, 0.00,60.00,Sunday
163,3718107.876922268
2,9, 2, 5, 0,17, 0.00,60.00,Sunday
163,4887672.318734495
2,9, 2, 5, 0,18, 0.00,60.00,Sunday
163,5215032.612094636
2,9, 2, 5, 0,19, 0.00,60.00,Sunday
163,5347446.322585546
2,9, 2, 5, 0,20, 0.00,60.00,Sunday
163,5341200.7928373389
2,9, 2, 5, 0,21, 0.00,60.00,Sunday
163,5348556.03541629
2,9, 2, 5, 0,22, 0.00,60.00,Sunday
163,5351283.47723478
2,9, 2, 5, 0,23, 0.00,60.00,Sunday
163,5375313.477952969
2,9, 2, 5, 0,24, 0.00,60.00,Sunday
163,5389058.1794911469
2,10, 2, 6, 0, 1, 0.00,60.00,Monday
163,5406127.180474386
2,10, 2, 6, 0, 2, 0.00,60.00,Monday
163,5411513.249521732
2,10, 2, 6, 0, 3, 0.00,60.00,Monday
163,5419064.804269826
2,10, 2, 6, 0, 4, 0.00,60.00,Monday
163,5414076.5743614039
2,10, 2, 6, 0, 5, 0.00,60.00,Monday
163,5438745.1703321649
2,10, 2, 6, 0, 6, 0.00,60.00,Monday
163,5476860.712952027
2,10, 2, 6, 0, 7, 0.00,60.00,Monday
163,5527692.258591935
2,10, 2, 6, 0, 8, 0.00,60.00,Monday
163,5480025.362700267
2,10, 2, 6, 0, 9, 0.00,60.00,Monday
163,5129947.600707528
2,10, 2, 6, 0,10, 0.00,60.00,Monday
163,4008833.735496173
2,10, 2, 6, 0,11, 0.00,60.00,Monday
163,2859048.482971355
2,10, 2, 6, 0,12, 0.00,60.00,Monday
163,2832072.0007295829
2,10, 2, 6, 0,13, 0.00,60.00,Monday
163,2862061.2773689336
2,10, 2, 6, 0,14, 0.00,60.00,Monday
163,2645336.3986522515
2,10, 2, 6, 0,15, 0.00,60.00,Monday
163,2680573.149562431
2,10, 2, 6, 0,16, 0.00,60.00,Monday
163,3722681.4893586866
2,10, 2, 6, 0,17, 0.00,60.00,Monday
163,4750574.018949517
2,10, 2, 6, 0,18, 0.00,60.00,Monday
163,5209399.900750765
2,10, 2, 6, 0,19, 0.00,60.00,Monday
163,5447853.5000911899
2,10, 2, 6, 0,20, 0.00,60.00,Monday
163,5559658.75490439
2,10, 2, 6, 0,21, 0.00,60.00,Monday
163,5662614.697278836
2,10, 2, 6, 0,22, 0.00,60.00,Monday
163,5735299.604328243
2,10, 2, 6, 0,23, 0.00,60.00,Monday
163,5841043.169674217
2,10, 2, 6, 0,24, 0.00,60.00,Monday
163,5988919.341465758
2,11, 2, 7, 0, 1, 0.00,60.00,Tuesday
163,6119645.371689829
2,11, 2, 7, 0, 2, 0.00,60.00,Tuesday
163,6181336.021389584
2,11, 2, 7, 0, 3, 0.00,60.00,Tuesday
163,6220870.463491867
2,11, 2, 7, 0, 4, 0.00,60.00,Tuesday
163,6238944.821122096
2,11, 2, 7, 0, 5, 0.00,60.00,Tuesday
163,6302147.204643906
2,11, 2, 7, 0, 6, 0.00,60.00,Tuesday
163,6312364.015747232
2,11, 2, 7, 0, 7, 0.00,60.00,Tuesday
163,6353031.149639481
2,11, 2, 7, 0, 8, 0.00,60.00,Tuesday
163,6183816.276863983
2,11, 2, 7, 0, 9, 0.00,60.00,Tuesday
163,5590285.2626840169
2,11, 2, 7, 0,10, 0.00,60.00,Tuesday
163,4346586.749537891
2,11, 2, 7, 0,11, 0.00,60.00,Tuesday
163,3107764.4815220937
2,11, 2, 7, 0,12, 0.00,60.00,Tuesday
163,3047775.9102815159
2,11, 2, 7, 0,13, 0.00,60.00,Tuesday
163,3004975.803531225
2,11, 2, 7, 0,14, 0.00,60.00,Tuesday
163,2922815.4994258305
2,11, 2, 7, 0,15, 0.00,60.00,Tuesday
163,3111199.60414325
2,11, 2, 7, 0,16, 0.00,60.00,Tuesday
163,4059924.04752384
2,11, 2, 7, 0,17, 0.00,60.00,Tuesday
163,4780237.39401067
2,11, 2, 7, 0,18, 0.00,60.00,Tuesday
163,5018481.867274617
2,11, 2, 7, 0,19, 0.00,60.00,Tuesday
163,5053042.4545028139
2,11, 2, 7, 0,20, 0.00,60.00,Tuesday
163,4935018.369121134
2,11, 2, 7, 0,21, 0.00,60.00,Tuesday
163,4800434.683133091
2,11, 2, 7, 0,22, 0.00,60.00,Tuesday
163,4602341.453230799
2,11, 2, 7, 0,23, 0.00,60.00,Tuesday
163,4513300.745988957
2,11, 2, 7, 0,24, 0.00,60.00,Tuesday
163,4491182.371467624
2,12, 2, 8, 0, 1, 0.00,60.00,Wednesday
163,4475219.577547065
2,12, 2, 8, 0, 2, 0.00,60.00,Wednesday
163,4523909.769227096
2,12, 2, 8, 0, 3, 0.00,60.00,Wednesday
163,4533234.817846458
2,12, 2, 8, 0, 4, 0.00,60.00,Wednesday
163,4541655.9384286659
2,12, 2, 8, 0, 5, 0.00,60.00,Wednesday
163,4644282.728084066
2,12, 2, 8, 0, 6, 0.00,60.00,Wednesday
163,4757343.322576296
2,12, 2, 8, 0, 7, 0.00,60.00,Wednesday
163,4909614.665108538
2,12, 2, 8, 0, 8, 0.00,60.00,Wednesday
163,4890763.783913404
2,12, 2, 8, 0, 9, 0.00,60.00,Wednesday
163,4201363.1253968109
2,12, 2, 8, 0,10, 0.00,60.00,Wednesday
163,3221495.172425389
2,12, 2, 8, 0,11, 0.00,60.00,Wednesday
163,2062844.3714703187
2,12, 2, 8, 0,12, 0.00,60.00,Wednesday
163,1952331.8558750742
2,12, 2, 8, 0,13, 0.00,60.00,Wednesday
163,1739264.289159801
2,12, 2, 8, 0,14, 0.00,60.00,Wednesday
163,1309395.1728456312
2,12, 2, 8, 0,15, 0.00,60.00,Wednesday
163,1214294.2133815636
2,12, 2, 8, 0,16, 0.00,60.00,Wednesday
163,2141033.416464929
2,12, 2, 8, 0,17, 0.00,60.00,Wednesday
163,3640976.9201835796
2,12, 2, 8, 0,18, 0.00,60.00,Wednesday
163,4259266.685477055
2,12, 2, 8, 0,19, 0.00,60.00,Wednesday
163,4611682.255451182
2,12, 2, 8, 0,20, 0.00,60.00,Wednesday
163,4661873.258476726
2,12, 2, 8, 0,21, 0.00,60.00,Wednesday
163,4658115.681579973
2,12, 2, 8, 0,22, 0.00,60.00,Wednesday
163,4617007.951590496
2,12, 2, 8, 0,23, 0.00,60.00,Wednesday
163,4670392.329309917
2,12, 2, 8, 0,24, 0.00,60.00,Wednesday
163,4732063.1923539419
2,13, 2, 9, 0, 1, 0.00,60.00,Thursday
163,4808436.502267863
2,13, 2, 9, 0, 2, 0.00,60.00,Thursday
163,4847968.359561501
2,13, 2, 9, 0, 3, 0.00,60.00,Thursday
163,4874214.211441324
2,13, 2, 9, 0, 4, 0.00,60.00,Thursday
163,4909161.220436114
2,13, 2, 9, 0, 5, 0.00,60.00,Thursday
163,4930406.7940159379
2,13, 2, 9, 0, 6, 0.00,60.00,Thursday
163,4924009.866866316
2,13, 2, 9, 0, 7, 0.00,60.00,Thursday
163,4905233.704779516
2,13, 2, 9, 0, 8, 0.00,60.00,Thursday
163,4759145.532403753
2,13, 2, 9, 0, 9, 0.00,60.00,Thursday
163,3964704.755600344
2,13, 2, 9, 0,10, 0.00,60.00,Thursday
163,2907541.8966220405
2,13, 2, 9, 0,11, 0.00,60.00,Thursday
163,1790230.2058203524
2,13, 2, 9, 0,12, 0.00,60.00,Thursday
163,1705511.0230164149
2,13, 2, 9, 0,13, 0.00,60.00,Thursday
163,1528671.100772334
2,13, 2, 9, 0,14, 0.00,60.00,Thursday
163,1080639.936019368
2,13, 2, 9, 0,15, 0.00,60.00,Thursday
163,1009368.8305090874
2,13, 2, 9, 0,16, 0.00,60.00,Thursday
163,2099236.6970908835
2,13, 2, 9, 0,17, 0.00,60.00,Thursday
163,3514253.7885611394
2,13, 2, 9, 0,18, 0.00,60.00,Thursday
163,4310415.321145136
2,13, 2, 9, 0,19, 0.00,60.00,Thursday
163,4727917.296825131
2,13, 2, 9, 0,20, 0.00,60.00,Thursday
163,4832040.795242837
2,13, 2, 9, 0,21, 0.00,60.00,Thursday
163,4836576.36012018
2,13, 2, 9, 0,22, 0.00,60.00,Thursday
163,4798097.632078258
2,13, 2, 9, 0,23, 0.00,60.00,Thursday
163,4840372.363236329
2,13, 2, 9, 0,24, 0.00,60.00,Thursday
163,4928287.978522488
2,14, 2,10, 0, 1, 0.00,60.00,Friday
163,5037015.3450414179
2,14, 2,10, 0, 2, 0.00,60.00,Friday
163,5136467.758632225
2,14, 2,10, 0, 3, 0.00,60.00,Friday
163,5227309.30463529
2,14, 2,10, 0, 4, 0.00,60.00,Friday
163,5310172.41456879
2,14, 2,10, 0, 5, 0.00,60.00,Friday
163,5308077.984043104
2,14, 2,10, 0, 6, 0.00,60.00,Friday
163,5254430.062286937
2,14, 2,10, 0, 7, 0.00,60.00,Friday
163,5100998.246129076
2,14, 2,10, 0, 8, 0.00,60.00,Friday
163,4998519.151735171
2,14, 2,10, 0, 9, 0.00,60.00,Friday
163,4735249.411391302
2,14, 2,10, 0,10, 0.00,60.00,Friday
163,4152314.5622473389
2,14, 2,10, 0,11, 0.00,60.00,Friday
163,3570907.2346695775
2,14, 2,10, 0,12, 0.00,60.00,Friday
163,3160304.76180348
2,14, 2,10, 0,13, 0.00,60.00,Friday
163,2891916.1763275174
2,14, 2,10, 0,14, 0.00,60.00,Friday
163,2917265.6022604468
2,14, 2,10, 0,15, 0.00,60.00,Friday
163,3224278.9765190088
2,14, 2,10, 0,16, 0.00,60.00,Friday
163,3768527.400819317
2,14, 2,10, 0,17, 0.00,60.00,Friday
163,4265152.032539468
2,14, 2,10, 0,18, 0.00,60.00,Friday
163,4520176.999772492
2,14, 2,10, 0,19, 0.00,60.00,Friday
163,4692668.112766163
2,14, 2,10, 0,20, 0.00,60.00,Friday
163,4700228.550025478
2,14, 2,10, 0,21, 0.00,60.00,Friday
163,4669104.052315944
2,14, 2,10, 0,22, 0.00,60.00,Friday
163,4599842.10233821
2,14, 2,10, 0,23, 0.00,60.00,Friday
163,4696611.574366115
2,14, 2,10, 0,24, 0.00,60.00,Friday
163,4790828.284475724
2,15, 2,11, 0, 1, 0.00,60.00,Saturday
163,4911584.690619575
2,15, 2,11, 0, 2, 0.00,60.00,Saturday
163,4928102.946498217
2,15, 2,11, 0, 3, 0.00,60.00,Saturday
163,4903963.38557237
2,15, 2,11, 0, 4, 0.00,60.00,Saturday
163,4912430.416923894
2,15, 2,11, 0, 5, 0.00,60.00,Saturday
163,4864743.998784109
2,15, 2,11, 0, 6, 0.00,60.00,Saturday
163,4849062.896735428
2,15, 2,11, 0, 7, 0.00,60.00,Saturday
163,4805670.442204046
2,15, 2,11, 0, 8, 0.00,60.00,Saturday
163,4735204.494598891
2,15, 2,11, 0, 9, 0.00,60.00,Saturday
163,4340698.3052238649
2,15, 2,11, 0,10, 0.00,60.00,Saturday
163,2464057.675048651
2,15, 2,11, 0,11, 0.00,60.00,Saturday
163,2057143.164198906
2,15, 2,11, 0,12, 0.00,60.00,Saturday
163,2117615.585769059
2,15, 2,11, 0,13, 0.00,60.00,Saturday
163,2119516.0858970514
2,15, 2,11, 0,14, 0.00,60.00,Saturday
163,1648318.1944612056
2,15, 2,11, 0,15, 0.00,60.00,Saturday
163,1389875.035711175
2,15, 2,11, 0,16, 0.00,60.00,Saturday
163,2327532.7592122445
2,15, 2,11, 0,17, 0.00,60.00,Saturday
163,3840830.0506455649
2,15, 2,11, 0,18, 0.00,60.00,Saturday
163,4571648.279734435
2,15, 2,11, 0,19, 0.00,60.00,Saturday
163,4982762.139574832
2,15, 2,11, 0,20, 0.00,60.00,Saturday
163,5111731.127079898
2,15, 2,11, 0,21, 0.00,60.00,Saturday
163,5214633.504069872
2,15, 2,11, 0,22, 0.00,60.00,Saturday
163,5264487.744263189
2,15, 2,11, 0,23, 0.00,60.00,Saturday
163,5207110.210382593
2,15, 2,11, 0,24, 0.00,60.00,Saturday
163,5075642.471445691
2,16, 2,12, 0, 1, 0.00,60.00,Sunday
163,4977020.068733163
2,16, 2,12, 0, 2, 0.00,60.00,Sunday
163,4913099.946074633
2,16, 2,12, 0, 3, 0.00,60.00,Sunday
163,4858868.707382715
2,16, 2,12, 0, 4, 0.00,60.00,Sunday
163,4798727.137547615
2,16, 2,12, 0, 5, 0.00,60.00,Sunday
163,4782784.943813846
2,16, 2,12, 0, 6, 0.00,60.00,Sunday
163,4758739.239352588
2,16, 2,12, 0, 7, 0.00,60.00,Sunday
163,4755923.5719354259
2,16, 2,12, 0, 8, 0.00,60.00,Sunday
163,4831303.068439761
2,16, 2,12, 0, 9, 0.00,60.00,Sunday
163,4679385.128466992
2,16, 2,12, 0,10, 0.00,60.00,Sunday
163,3434821.107830456
2,16, 2,12, 0,11, 0.00,60.00,Sunday
163,2704879.7610743178
2,16, 2,12, 0,12, 0.00,60.00,Sunday
163,2511424.534234816
2,16, 2,12, 0,13, 0.00,60.00,Sunday
163,2372646.362015025
2,16, 2,12, 0,14, 0.00,60.00,Sunday
163,1912394.7409771118
2,16, 2,12, 0,15, 0.00,60.00,Sunday
163,1606494.5549937427
2,16, 2,12, 0,16, 0.00,60.00,Sunday
163,2597909.6415128705
2,16, 2,12, 0,17, 0.00,60.00,Sunday
163,4245595.993782256
2,16, 2,12, 0,18, 0.00,60.00,Sunday
163,4957480.139384784
2,16, 2,12, 0,19, 0.00,60.00,Sunday
163,5274161.560020056
2,16, 2,12, 0,20, 0.00,60.00,Sunday
163,5405624.862984573
2,16, 2,12, 0,21, 0.00,60.00,Sunday
163,5484560.739282776
2,16, 2,12, 0,22, 0.00,60.00,Sunday
163,5556891.602157168
2,16, 2,12, 0,23, 0.00,60.00,Sunday
163,5586441.30985094
2,16, 2,12, 0,24, 0.00,60.00,Sunday
163,5637450.338111493
2,17, 2,13, 0, 1, 0.00,60.00,Monday
163,5671603.374131374
2,17, 2,13, 0, 2, 0.00,60.00,Monday
163,5585403.871185366
2,17, 2,13, 0, 3, 0.00,60.00,Monday
163,5537464.02821165
2,17, 2,13, 0, 4, 0.00,60.00,Monday
163,5452925.117450436
2,17, 2,13, 0, 5, 0.00,60.00,Monday
163,5456729.233879175
2,17, 2,13, 0, 6, 0.00,60.00,Monday
163,5403790.55946687
2,17, 2,13, 0, 7, 0.00,60.00,Monday
163,5352751.664447599
2,17, 2,13, 0, 8, 0.00,60.00,Monday
163,5330776.945512942
2,17, 2,13, 0, 9, 0.00,60.00,Monday
163,5252260.048236717
2,17, 2,13, 0,10, 0.00,60.00,Monday
163,5056406.371995129
2,17, 2,13, 0,11, 0.00,60.00,Monday
163,4766470.592372537
2,17, 2,13, 0,12, 0.00,60.00,Monday
163,4537814.1633831369
2,17, 2,13, 0,13, 0.00,60.00,Monday
163,4387703.492411146
2,17, 2,13, 0,14, 0.00,60.00,Monday
163,4415971.066718387
2,17, 2,13, 0,15, 0.00,60.00,Monday
163,4547021.360633196
2,17, 2,13, 0,16, 0.00,60.00,Monday
163,4785940.134148211
2,17, 2,13, 0,17, 0.00,60.00,Monday
163,5156400.076585079
2,17, 2,13, 0,18, 0.00,60.00,Monday
163,5420814.76524287
2,17, 2,13, 0,19, 0.00,60.00,Monday
163,5643985.100473452
2,17, 2,13, 0,20, 0.00,60.00,Monday
163,5844223.552171526
2,17, 2,13, 0,21, 0.00,60.00,Monday
163,6010530.128586985
2,17, 2,13, 0,22, 0.00,60.00,Monday
163,6173757.828136815
2,17, 2,13, 0,23, 0.00,60.00,Monday
163,6293760.076428263
2,17, 2,13, 0,24, 0.00,60.00,Monday
163,6388200.798891813
2,18, 2,14, 0, 1, 0.00,60.00,Tuesday
163,6485334.35157906
2,18, 2,14, 0, 2, 0.00,60.00,Tuesday
163,6518538.191937738
2,18, 2,14, 0, 3, 0.00,60.00,Tuesday
163,6571839.5469681839
2,18, 2,14, 0, 4, 0.00,60.00,Tuesday
163,6589337.72437198
2,18, 2,14, 0, 5, 0.00,60.00,Tuesday
163,6676471.109282084
2,18, 2,14, 0, 6, 0.00,60.00,Tuesday
163,6747246.94222497
2,18, 2,14, 0, 7, 0.00,60.00,Tuesday
163,6816786.098093728
2,18, 2,14, 0, 8, 0.00,60.00,Tuesday
163,6555085.09618236
2,18, 2,14, 0, 9, 0.00,60.00,Tuesday
163,5057373.90089487
2,18, 2,14, 0,10, 0.00,60.00,Tuesday
163,3014263.1607646166
2,18, 2,14, 0,11, 0.00,60.00,Tuesday
163,2348241.8613568569
2,18, 2,14, 0,12, 0.00,60.00,Tuesday
163,2407847.917331596
2,18, 2,14, 0,13, 0.00,60.00,Tuesday
163,2276914.03400596
2,18, 2,14, 0,14, 0.00,60.00,Tuesday
163,1759039.151973177
2,18, 2,14, 0,15, 0.00,60.00,Tuesday
163,1524292.7291350358
2,18, 2,14, 0,16, 0.00,60.00,Tuesday
163,2457441.680872467
2,18, 2,14, 0,17, 0.00,60.00,Tuesday
163,4172798.3202908497
2,18, 2,14, 0,18, 0.00,60.00,Tuesday
163,4968956.058236701
2,18, 2,14, 0,19, 0.00,60.00,Tuesday
163,6053251.053733763
2,18, 2,14, 0,20, 0.00,60.00,Tuesday
163,5030779.700818357
2,18, 2,14, 0,21, 0.00,60.00,Tuesday
163,5008974.246171334
2,18, 2,14, 0,22, 0.00,60.00,Tuesday
163,4812350.6174955139
2,18, 2,14, 0,23, 0.00,60.00,Tuesday
163,4767307.05790536
2,18, 2,14, 0,24, 0.00,60.00,Tuesday
163,4701029.603571689
2,19, 2,15, 0, 1, 0.00,60.00,Wednesday
163,4635374.373909844
2,19, 2,15, 0, 2, 0.00,60.00,Wednesday
163,4584580.630917564
2,19, 2,15, 0, 3, 0.00,60.00,Wednesday
163,4540807.113909745
2,19, 2,15, 0, 4, 0.00,60.00,Wednesday
163,4496526.947702441
2,19, 2,15, 0, 5, 0.00,60.00,Wednesday
163,4459078.037889493
2,19, 2,15, 0, 6, 0.00,60.00,Wednesday
163,4457636.357088544
2,19, 2,15, 0, 7, 0.00,60.00,Wednesday
163,4440115.40324757
2,19, 2,15, 0, 8, 0.00,60.00,Wednesday
163,4458487.810786318
2,19, 2,15, 0, 9, 0.00,60.00,Wednesday
163,4431395.424638333
2,19, 2,15, 0,10, 0.00,60.00,Wednesday
163,4272412.4280021269
2,19, 2,15, 0,11, 0.00,60.00,Wednesday
163,4124165.459256022
2,19, 2,15, 0,12, 0.00,60.00,Wednesday
163,3992284.1005797248
2,19, 2,15, 0,13, 0.00,60.00,Wednesday
163,3972129.603338241
2,19, 2,15, 0,14, 0.00,60.00,Wednesday
163,4017066.016215865
2,19, 2,15, 0,15, 0.00,60.00,Wednesday
163,4140984.6247085148
2,19, 2,15, 0,16, 0.00,60.00,Wednesday
163,4297497.01803034
2,19, 2,15, 0,17, 0.00,60.00,Wednesday
163,4456149.242516513
2,19, 2,15, 0,18, 0.00,60.00,Wednesday
163,4521509.4474091739
2,19, 2,15, 0,19, 0.00,60.00,Wednesday
163,4542228.650527666
2,19, 2,15, 0,20, 0.00,60.00,Wednesday
163,4549615.645542584
2,19, 2,15, 0,21, 0.00,60.00,Wednesday
163,4551263.058096199
2,19, 2,15, 0,22, 0.00,60.00,Wednesday
163,4554338.621708233
2,19, 2,15, 0,23, 0.00,60.00,Wednesday
163,4565727.240261044
2,19, 2,15, 0,24, 0.00,60.00,Wednesday
163,4555590.974911922
2,20, 2,16, 0, 1, 0.00,60.00,Thursday
163,4546528.911151361
2,20, 2,16, 0, 2, 0.00,60.00,Thursday
163,4538330.790646335
2,20, 2,16, 0, 3, 0.00,60.00,Thursday
163,4537971.330954239
2,20, 2,16, 0, 4, 0.00,60.00,Thursday
163,4515784.492881871
2,20, 2,16, 0, 5, 0.00,60.00,Thursday
163,4560165.615736878
2,20, 2,16, 0, 6, 0.00,60.00,Thursday
163,4617441.00936233
2,20, 2,16, 0, 7, 0.00,60.00,Thursday
163,4658204.902868464
2,20, 2,16, 0, 8, 0.00,60.00,Thursday
163,4625426.929625344
2,20, 2,16, 0, 9, 0.00,60.00,Thursday
163,3883960.7573697927
2,20, 2,16, 0,10, 0.00,60.00,Thursday
163,2490999.311136305
2,20, 2,16, 0,11, 0.00,60.00,Thursday
163,2176645.1042509207
2,20, 2,16, 0,12, 0.00,60.00,Thursday
163,2342574.070784866
2,20, 2,16, 0,13, 0.00,60.00,Thursday
163,2653048.535684838
2,20, 2,16, 0,14, 0.00,60.00,Thursday
163,3031161.132340733
2,20, 2,16, 0,15, 0.00,60.00,Thursday
163,3626024.4539775338
2,20, 2,16, 0,16, 0.00,60.00,Thursday
163,4259394.574699843
2,20, 2,16, 0,17, 0.00,60.00,Thursday
163,4643953.964095259
2,20, 2,16, 0,18, 0.00,60.00,Thursday
163,4850394.000141385
2,20, 2,16, 0,19, 0.00,60.00,Thursday
163,4862296.228431832
2,20, 2,16, 0,20, 0.00,60.00,Thursday
163,4867073.122856803
2,20, 2,16, 0,21, 0.00,60.00,Thursday
163,4870868.031275068
2,20, 2,16, 0,22, 0.00,60.00,Thursday
163,4879259.903921642
2,20, 2,16, 0,23, 0.00,60.00,Thursday
163,4883592.082976245
2,20, 2,16, 0,24, 0.00,60.00,Thursday
163,4904849.184950969
2,21, 2,17, 0, 1, 0.00,60.00,Friday
163,4912851.217002179
2,21, 2,17, 0, 2, 0.00,60.00,Friday
163,5015466.981822589
2,21, 2,17, 0, 3, 0.00,60.00,Friday
163,5043002.694061834
2,21, 2,17, 0, 4, 0.00,60.00,Friday
163,5106984.458405636
2,21, 2,17, 0, 5, 0.00,60.00,Friday
163,5112946.979447755
2,21, 2,17, 0, 6, 0.00,60.00,Friday
163,5149362.4978073
2,21, 2,17, 0, 7, 0.00,60.00,Friday
163,5157374.800352006
2,21, 2,17, 0, 8, 0.00,60.00,Friday
163,5138354.96672305
2,21, 2,17, 0, 9, 0.00,60.00,Friday
163,4823002.708680507
2,21, 2,17, 0,10, 0.00,60.00,Friday
163,4309685.773838013
2,21, 2,17, 0,11, 0.00,60.00,Friday
163,2913474.5071400029
2,21, 2,17, 0,12, 0.00,60.00,Friday
163,2586785.756973786
2,21, 2,17, 0,13, 0.00,60.00,Friday
163,2363174.433561001
2,21, 2,17, 0,14, 0.00,60.00,Friday
163,1828596.0720474662
2,21, 2,17, 0,15, 0.00,60.00,Friday
163,1464185.9098412197
2,21, 2,17, 0,16, 0.00,60.00,Friday
163,2149006.2769587675
2,21, 2,17, 0,17, 0.00,60.00,Friday
163,4049941.1880004836