Program Version,EnergyPlus, Version 8.9.0-40101eaafd, YMD=2019.01.14 22:25
1,5,Environment Title[],Latitude[deg],Longitude[deg],Time Zone[],Elevation[m]
2,8,Day of Simulation[],Month[],Day of Month[],DST Indicator[1=yes 0=no],Hour[],StartMinute[],EndMinute[],DayType
3,5,Cumulative Day of Simulation[],Month[],Day of Month[],DST Indicator[1=yes 0=no],DayType  ! When Daily Report Variables Requested
4,2,Cumulative Days of Simulation[],Month[]  ! When Monthly Report Variables Requested
5,1,Cumulative Days of Simulation[] ! When Run Period Report Variables Requested
6,1,Calendar Year of Simulation[] ! When Annual Report Variables Requested
7,1,Environment,Site Outdoor Air Drybulb Temperature [C] !Hourly
314,1,ZONE ONE,Zone Air Temperature [C] !Hourly
315,1,ERV_1_HX,Heat Exchanger Total Heating Rate [W] !Hourly
379,1,ERV_1_FANSUPPLY,Fan Electric Power [W] !Hourly
393,1,ERV_1_FANSUPPLY,Fan Air Mass Flow Rate [kg/s] !Hourly
394,1,ERV_1_FANEXHAUST,Fan Electric Power [W] !Hourly
396,1,ERV_1_FANEXHAUST,Fan Air Mass Flow Rate [kg/s] !Hourly
397,1,RADIATOR,Baseboard Total Heating Rate [W] !Hourly
448,1,RADIATOR,Baseboard Hot Water Mass Flow Rate [kg/s] !Hourly
449,1,RADIATOR,Baseboard Water Inlet Temperature [C] !Hourly
450,1,RADIATOR,Baseboard Water Outlet Temperature [C] !Hourly
587,1,DISTRICT HEATING 1,District Heating Rate [W] !Hourly
588,1,DISTRICT HEATING 1,District Heating Inlet Temperature [C] !Hourly
589,1,DISTRICT HEATING 1,District Heating Outlet Temperature [C] !Hourly
590,1,DISTRICT HEATING 1,District Heating Mass Flow Rate [kg/s] !Hourly
120,1,DistrictHeating:Facility [J] !Hourly
End of Data Dictionary
1,ANNUAL SIM 1,  59.65,  17.95,   1.00,  61.00
2,1, 1, 1, 0, 1, 0.00,60.00,Sunday
7,4.0
314,18.26282414077218
315,0.0
379,0.0
393,0.0
394,0.0
396,0.0
397,0.0
448,0.0
449,59.99929412747067
450,59.99929412747067
587,0.0
588,49.81568022908363
589,49.81568022908363
590,0.0
120,43200.0
2,1, 1, 1, 0, 2, 0.00,60.00,Sunday
7,5.3
314,18.17281208254691
315,0.0
379,0.0
393,0.0
394,0.0
396,0.0
397,0.0
448,0.0
449,59.99929412747067
450,59.99929412747067
587,0.0
588,49.81568022908363
589,49.81568022908363
590,0.0
120,43200.0
2,1, 1, 1, 0, 3, 0.00,60.00,Sunday
7,6.2
314,18.158779561549495
315,0.0
379,0.0
393,0.0
394,0.0
396,0.0
397,0.0
448,0.0
449,59.99929412747067
450,59.99929412747067
587,0.0
588,49.81568022908363
589,49.81568022908363
590,0.0
120,43200.0
2,1, 1, 1, 0, 4, 0.00,60.00,Sunday
7,6.8
314,18.13523077115096
315,0.0
379,0.0
393,0.0
394,0.0
396,0.0
397,0.0
448,0.0
449,59.99929412747067
450,59.99929412747067
587,0.0
588,49.81568022908363
589,49.81568022908363
590,0.0
120,43200.0
2,1, 1, 1, 0, 5, 0.00,60.00,Sunday
7,7.2
314,18.096293222055189
315,0.0
379,0.0
393,0.0
394,0.0
396,0.0
397,0.0
448,0.0
449,59.99929412747067
450,59.99929412747067
587,0.0
588,49.81568022908363
589,49.81568022908363
590,0.0
120,43200.0
2,1, 1, 1, 0, 6, 0.00,60.00,Sunday
7,7.5
314,21.853619236389734
315,0.0
379,0.0
393,0.0
394,0.0
396,0.0
397,817.1269332365385
448,0.02881960474330357
449,59.941528892390547
450,52.246725377878039
587,1192.1307185547814
588,49.8983923226923
589,57.71244063600953
590,0.02881960474330357
120,4334870.586797212
2,1, 1, 1, 0, 7, 0.00,60.00,Sunday
7,7.5
314,22.150814443040848
315,0.0
379,0.0
393,0.0
394,0.0
396,0.0
397,798.6894989571161
448,0.029996940000000004
449,59.95179358576821
450,49.97062722480918
587,1259.8030267904505
588,49.9550805462706
589,60.0
590,0.029996940000000004
120,4600090.896445622
2,1, 1, 1, 0, 8, 0.00,60.00,Sunday
7,6.7
314,21.947103074548264
315,0.0
379,0.0
393,0.0
394,0.0
396,0.0
397,791.5050393247709
448,0.029996940000000004
449,59.96636752602571
450,50.018909249780197
587,1255.767058819532
588,49.98727637315778
589,59.99999999999999
590,0.029996940000000004
120,4700761.411750315
2,1, 1, 1, 0, 9, 0.00,60.00,Sunday
7,6.0
314,21.74191696142263
315,0.0
379,0.0
393,0.0
394,0.0
396,0.0
397,794.2323944582853
448,0.029996940000000004
449,59.97653541912093
450,49.97604861121188
587,1252.9524802527812
588,50.00973349629155
589,60.0
590,0.029996940000000004
120,4777028.928910012
2,1, 1, 1, 0,10, 0.00,60.00,Sunday
7,5.2
314,21.789618328666003
315,0.0
379,0.0
393,0.0
394,0.0
396,0.0
397,797.2053526748227
448,0.029996940000000004
449,59.98362931741949
450,49.93082110015496
587,1252.660425166207
588,50.01206438983181
589,59.99999999999999
590,0.029996940000000004
120,4761577.530598345
2,1, 1, 1, 0,11, 0.00,60.00,Sunday
7,5.2
314,20.836864994524498
315,0.0
379,0.0
393,0.0
394,0.0
396,0.0
397,762.8011358787672
448,0.029996940000000004
449,59.988578562321958
450,49.82938229160988
587,1254.3709807762248
588,49.998415047893818
589,60.0
590,0.029996940000000004
120,4746135.530794409
2,1, 1, 1, 0,12, 0.00,60.00,Sunday
7,5.2
314,20.878470170072747
315,0.0
379,0.0
393,0.0
394,0.0
396,0.0
397,805.6339822300224
448,0.029996940000000004
449,59.99203153332233
450,49.690472543345929
587,1262.017630953916
588,49.93741410715795
589,60.00000000000001
590,0.029996940000000004
120,4795263.471434098
2,1, 1, 1, 0,13, 0.00,60.00,Sunday
7,5.2
314,18.64956474513975
315,0.0
379,0.0
393,0.0
394,0.0
396,0.0
397,0.0
448,0.0
449,59.99337998320084
450,59.99337998320084
587,0.0
588,49.90668636220578
589,49.90668636220578
590,0.0
120,302400.0
2,1, 1, 1, 0,14, 0.00,60.00,Sunday
7,4.6
314,18.72747325027877
315,0.0
379,0.0
393,0.0
394,0.0
396,0.0
397,337.4996890244082
448,0.011998776000000003
449,59.99374576301737
450,55.669880414749119
587,508.5933757681556
588,49.870793899854579
589,53.926032828787949
590,0.011998776000000003
120,2097336.15276536
2,1, 1, 1, 0,15, 0.00,60.00,Sunday
7,4.1
314,19.685495028074855
315,0.0
379,0.0
393,0.0
394,0.0
396,0.0
397,553.4528574945339
448,0.019997960000000003
449,59.99500367805159
450,52.96764531838849
587,854.4500822511123
588,49.77597836449353
589,56.58891159171617
590,0.019997960000000003
120,3335220.2961040048
2,1, 1, 1, 0,16, 0.00,60.00,Sunday
7,3.5
314,20.401437383754577
315,0.0
379,0.0
393,0.0
394,0.0
396,0.0
397,834.464961674694
448,0.029996940000000004
449,59.99621339208058
450,49.669021631192759
587,1286.141905986878
588,49.74496692859363
589,60.0
590,0.029996940000000004
120,4853310.861552762
2,1, 1, 1, 0,17, 0.00,60.00,Sunday
7,3.2
314,21.72117723071422
315,0.0
379,0.0
393,0.0
394,0.0
396,0.0
397,824.6133469037798
448,0.029996940000000004
449,59.99735814911414
450,49.982590717448349
587,1281.001306251951
588,49.78597542350684
589,60.0
590,0.029996940000000004
120,4842004.702507024
2,1, 1, 1, 0,18, 0.00,60.00,Sunday
7,2.9
314,19.954158726197269
315,0.0
379,0.0
393,0.0
394,0.0
396,0.0
397,0.0
448,0.0
449,59.997805184677229
450,59.997805184677229
587,0.0
588,49.84627167951028
589,49.84627167951028
590,0.0
120,324000.0
2,1, 1, 1, 0,19, 0.00,60.00,Sunday
7,2.6
314,19.593724647392919
315,0.0
379,0.0
393,0.0
394,0.0
396,0.0
397,0.0
448,0.0
449,59.99780518467721
450,59.99780518467721
587,0.0
588,49.84627167951027
589,49.84627167951027
590,0.0
120,302400.0
2,1, 1, 1, 0,20, 0.00,60.00,Sunday
7,2.5
314,19.258868230390314
315,0.0
379,0.0
393,0.0
394,0.0
396,0.0
397,0.0
448,0.0
449,59.99780518467722
450,59.99780518467722
587,0.0
588,49.846271679510277
589,49.846271679510277
590,0.0
120,252000.0
2,1, 1, 1, 0,21, 0.00,60.00,Sunday
7,2.4
314,19.0119175401494
315,0.0
379,0.0
393,0.0
394,0.0
396,0.0
397,0.0
448,0.0
449,59.99780518467722
450,59.99780518467722
587,0.0
588,49.846271679510277
589,49.846271679510277
590,0.0
120,216000.0
2,1, 1, 1, 0,22, 0.00,60.00,Sunday
7,2.3
314,18.92278941550535
315,0.0
379,0.0
393,0.0
394,0.0
396,0.0
397,0.0
448,0.0
449,59.99780518467722
450,59.99780518467722
587,0.0
588,49.846271679510277
589,49.846271679510277
590,0.0
120,244800.0
2,1, 1, 1, 0,23, 0.00,60.00,Sunday
7,2.3
314,18.760420062292089
315,0.0
379,0.0
393,0.0
394,0.0
396,0.0
397,0.0
448,0.0
449,59.99780518467722
450,59.99780518467722
587,0.0
588,49.846271679510277
589,49.846271679510277
590,0.0
120,187200.0
2,1, 1, 1, 0,24, 0.00,60.00,Sunday
7,2.2
314,18.535486829877525
315,0.0
379,0.0
393,0.0
394,0.0
396,0.0
397,0.0
448,0.0
449,59.99780518467722
450,59.99780518467722
587,0.0
588,49.846271679510277
589,49.846271679510277
590,0.0
120,86400.0
2,2, 1, 2, 0, 1, 0.00,60.00,Monday
7,2.2
314,18.016098369075317
315,0.0
379,0.0
393,0.0
394,0.0
396,0.0
397,0.0
448,0.0
449,59.99780518467722
450,59.99780518467722
587,0.0
588,49.846271679510277
589,49.846271679510277
590,0.0
120,43200.0
2,2, 1, 2, 0, 2, 0.00,60.00,Monday
7,2.2
314,17.84041404332381
315,0.0
379,0.0
393,0.0
394,0.0
396,0.0
397,0.0
448,0.0
449,59.99780518467722
450,59.99780518467722
587,0.0
588,49.846271679510277
589,49.846271679510277
590,0.0
120,43200.0
2,2, 1, 2, 0, 3, 0.00,60.00,Monday
7,2.1
314,17.746032884981927
315,0.0
379,0.0
393,0.0
394,0.0
396,0.0
397,0.0
448,0.0
449,59.99780518467722
450,59.99780518467722
587,0.0
588,49.846271679510277
589,49.846271679510277
590,0.0
120,43200.0
2,2, 1, 2, 0, 4, 0.00,60.00,Monday
7,2.1
314,17.680433159850027
315,0.0
379,0.0
393,0.0
394,0.0
396,0.0
397,0.0
448,0.0
449,59.99780518467722
450,59.99780518467722
587,0.0
588,49.846271679510277
589,49.846271679510277
590,0.0
120,43200.0
2,2, 1, 2, 0, 5, 0.00,60.00,Monday
7,2.1
314,17.59962584052225
315,0.0
379,0.0
393,0.0
394,0.0
396,0.0
397,0.0
448,0.0
449,59.99780518467722
450,59.99780518467722
587,0.0
588,49.846271679510277
589,49.846271679510277
590,0.0
120,43200.0
2,2, 1, 2, 0, 6, 0.00,60.00,Monday
7,2.0
314,21.751037381996118
315,0.0
379,0.0
393,0.0
394,0.0
396,0.0
397,1026.9418170985746
448,0.03532972933333334
449,59.934014232005079
450,50.119809117269479
587,1457.3770204048305
588,49.932831271433489
589,59.852105353363857
590,0.03532972933333334
120,5289757.273457389
2,2, 1, 2, 0, 7, 0.00,60.00,Monday
7,2.0
314,21.971798648799579
315,0.0
379,0.0
393,0.0
394,0.0
396,0.0
397,1019.5699211013175
448,0.04257378203125001
449,59.88992350171828
450,50.51287661164962
587,1718.649955372321
588,50.16154251824311
589,59.83508870649338
590,0.04257378203125001
120,6388739.839340355
2,2, 1, 2, 0, 8, 0.00,60.00,Monday
7,2.0
314,21.706889327669797
315,0.0
379,0.0
393,0.0
394,0.0
396,0.0
397,792.0113808003929
448,0.029996940000000004
449,59.90947350359621
450,49.943063044110278
587,1230.7301203717564
588,50.18708732208244
589,60.0
590,0.029996940000000004
120,4783428.433338323
2,2, 1, 2, 0, 9, 0.00,60.00,Monday
7,1.9
314,18.52664742981265
315,0.0
379,0.0
393,0.0
394,0.0
396,0.0
397,259.4676873739204
448,0.013634972727272727
449,59.92933468959384
450,54.975925494817669
587,565.846523671895
588,50.092650905799747
589,54.60433259703785
590,0.013634972727272727
120,2339447.485218823
2,2, 1, 2, 0,10, 0.00,60.00,Monday
7,1.9
314,20.37760143603315
315,0.0
379,0.0
393,0.0
394,0.0
396,0.0
397,944.3118180643971
448,0.03332993333333334
449,59.91580670428918
450,49.70385829554226
587,1381.846204064566
588,49.97443195426693
589,59.9293204585187
590,0.03332993333333334
120,5205046.334632438
2,2, 1, 2, 0,11, 0.00,60.00,Monday
7,1.9
314,20.42725246787647
315,0.0
379,0.0
393,0.0
394,0.0
396,0.0
397,810.3489119583282
448,0.029996940000000004
449,59.9389475507738
450,49.66459854984744
587,1266.7845286619493
588,49.899387296782808
589,60.0
590,0.029996940000000004
120,4754824.303183017
2,2, 1, 2, 0,12, 0.00,60.00,Monday
7,1.9
314,20.210435549243667
315,0.0
379,0.0
393,0.0
394,0.0
396,0.0
397,805.5290601981034
448,0.029996940000000004
449,59.957405151526227
450,49.69201326326845
587,1272.6549997333655
588,49.852556798098607
589,60.0
590,0.029996940000000004
120,4819157.999040116
2,2, 1, 2, 0,13, 0.00,60.00,Monday
7,1.9
314,20.239015830461498
315,0.0
379,0.0
393,0.0
394,0.0
396,0.0
397,804.9405846916252
448,0.029996940000000004
449,59.97028258260726
450,49.67516364515858
587,1276.6007302832888
588,49.82108041067079
589,59.99999999999999
590,0.029996940000000004
120,4890962.62901984
2,2, 1, 2, 0,14, 0.00,60.00,Monday
7,1.6
314,20.108983682164788
315,0.0
379,0.0
393,0.0
394,0.0
396,0.0
397,802.1865105161734
448,0.029996940000000004
449,59.979266861413119
450,49.712702259355257
587,1278.8998537818306
588,49.8027395043139
589,60.0
590,0.029996940000000004
120,4856039.47361459
2,2, 1, 2, 0,15, 0.00,60.00,Monday
7,1.3
314,20.076180613118514
315,0.0
379,0.0
393,0.0
394,0.0
396,0.0
397,844.0465925154589
448,0.031871748750000008
449,59.985683720796249
450,49.78345602866766
587,1358.2560729331335
588,49.807056822804
589,60.0
590,0.031871748750000008
120,5134521.86255928
2,2, 1, 2, 0,16, 0.00,60.00,Monday
7,1.0
314,20.078929122397569
315,0.0
379,0.0
393,0.0
394,0.0
396,0.0
397,871.3905457469552
448,0.033121621250000007
449,59.99030341723373
450,49.84464234223563
587,1408.1757194494949
588,49.831225802064277
589,60.0
590,0.033121621250000007
120,5278232.590018181
2,2, 1, 2, 0,17, 0.00,60.00,Monday
7,0.9
314,20.070487146227717
315,0.0
379,0.0
393,0.0
394,0.0
396,0.0
397,864.1776412145151
448,0.03288727015625
449,59.99347677917337
450,49.84110063971382
587,1394.7552957507128
588,49.85637911269195
589,60.0
590,0.03288727015625
120,5251519.064702566
2,2, 1, 2, 0,18, 0.00,60.00,Monday
7,0.7
314,20.211401843759324
315,0.0
379,0.0
393,0.0
394,0.0
396,0.0
397,799.5680116246247
448,0.029996940000000004
449,59.99553153111729
450,49.71274728216295
587,1272.775715004445
588,49.851593814173558
589,59.99999999999999
590,0.029996940000000004
120,4941992.574016002
2,2, 1, 2, 0,19, 0.00,60.00,Monday
7,0.6
314,20.728458997473859
315,0.0
379,0.0
393,0.0
394,0.0
396,0.0
397,404.7448097225655
448,0.014998470000000002
449,59.996653082076367
450,54.88028113784632
587,637.2647540684643
588,49.83747870134975
589,54.91867708072688
590,0.014998470000000002
120,2646953.1146464718
2,2, 1, 2, 0,20, 0.00,60.00,Monday
7,0.6
314,20.8514251928969
315,0.0
379,0.0
393,0.0
394,0.0
396,0.0
397,404.83023384277308
448,0.014998470000000002
449,59.997225170097078
450,54.90049881365809
587,637.0326511422156
588,49.841921623362448
589,54.92126844203168
590,0.014998470000000002
120,2581317.544111976
2,2, 1, 2, 0,21, 0.00,60.00,Monday
7,0.6
314,19.32447287366324
315,0.0
379,0.0
393,0.0
394,0.0
396,0.0
397,0.0
448,0.0
449,59.99741001615525
450,59.99741001615525
587,0.0
588,49.84264535347661
589,49.84264535347661
590,0.0
120,259200.0
2,2, 1, 2, 0,22, 0.00,60.00,Monday
7,0.6
314,19.10270126381093
315,0.0
379,0.0
393,0.0
394,0.0
396,0.0
397,0.0
448,0.0
449,59.99741001615524
450,59.99741001615524
587,0.0
588,49.842645353476608
589,49.842645353476608
590,0.0
120,324000.0
2,2, 1, 2, 0,23, 0.00,60.00,Monday
7,0.8
314,18.682804577040586
315,0.0
379,0.0
393,0.0
394,0.0
396,0.0
397,0.0
448,0.0
449,59.99741001615524
450,59.99741001615524
587,0.0
588,49.842645353476608
589,49.842645353476608
590,0.0
120,216000.0
2,2, 1, 2, 0,24, 0.00,60.00,Monday
7,0.9
314,18.38939037493477
315,0.0
379,0.0
393,0.0
394,0.0
396,0.0
397,0.0
448,0.0
449,59.99741001615524
450,59.99741001615524
587,0.0
588,49.842645353476608
589,49.842645353476608
590,0.0
120,57600.0
2,3, 1, 3, 0, 1, 0.00,60.00,Tuesday
7,1.1
314,17.94513368354419
315,0.0
379,0.0
393,0.0
394,0.0
396,0.0
397,0.0
448,0.0
449,59.99741001615524
450,59.99741001615524
587,0.0
588,49.842645353476608
589,49.842645353476608
590,0.0
120,43200.0
2,3, 1, 3, 0, 2, 0.00,60.00,Tuesday
7,0.9
314,17.790673225662706
315,0.0
379,0.0
393,0.0
394,0.0
396,0.0
397,0.0
448,0.0
449,59.99741001615524
450,59.99741001615524
587,0.0
588,49.842645353476608
589,49.842645353476608
590,0.0
120,43200.0
2,3, 1, 3, 0, 3, 0.00,60.00,Tuesday
7,0.6
314,17.694667734595304
315,0.0
379,0.0
393,0.0
394,0.0
396,0.0
397,0.0
448,0.0
449,59.99741001615524
450,59.99741001615524
587,0.0
588,49.842645353476608
589,49.842645353476608
590,0.0
120,43200.0
2,3, 1, 3, 0, 4, 0.00,60.00,Tuesday
7,0.4
314,17.57858348368868
315,0.0
379,0.0
393,0.0
394,0.0
396,0.0
397,0.0
448,0.0
449,59.99741001615524
450,59.99741001615524
587,0.0
588,49.842645353476608
589,49.842645353476608
590,0.0
120,43200.0
2,3, 1, 3, 0, 5, 0.00,60.00,Tuesday
7,0.6
314,17.50079248495818
315,0.0
379,0.0
393,0.0
394,0.0
396,0.0
397,0.0
448,0.0
449,59.99741001615524
450,59.99741001615524
587,0.0
588,49.842645353476608
589,49.842645353476608
590,0.0
120,43200.0
2,3, 1, 3, 0, 6, 0.00,60.00,Tuesday
7,0.9
314,21.616788581672105
315,0.0
379,0.0
393,0.0
394,0.0
396,0.0
397,1033.6243851058603
448,0.03532972933333334
449,59.933120685435138
450,50.08730816429155
587,1458.2888411684044
588,49.92420780027641
589,59.85075631443639
590,0.03532972933333334
120,5293039.828206256
2,3, 1, 3, 0, 7, 0.00,60.00,Tuesday
7,1.1
314,21.94638571429633
315,0.0
379,0.0
393,0.0
394,0.0
396,0.0
397,1034.8240640197296
448,0.042964367187500008
449,59.886506257135817
450,50.50635522956382
587,1735.7105995865995
588,50.14628630413924
589,59.8271058447708
590,0.042964367187500008
120,6450158.158511759
2,3, 1, 3, 0, 8, 0.00,60.00,Tuesday
7,0.9
314,22.111037253788554
315,0.0
379,0.0
393,0.0
394,0.0
396,0.0
397,976.5887291526317
448,0.03858981343750001
449,59.91109145060845
450,50.35450474686455
587,1572.8137415025874
588,50.2520346537329
589,60.0
590,0.03858981343750001
120,6014929.469409315
2,3, 1, 3, 0, 9, 0.00,60.00,Tuesday
7,0.8
314,19.976725687690128
315,0.0
379,0.0
393,0.0
394,0.0
396,0.0
397,803.3798619373672
448,0.03744409697916667
449,59.92839760484367
450,51.85003254643787
587,1508.9523725058648
588,50.30523122543099
589,58.341692173021787
590,0.03744409697916667
120,5734628.541021113
2,3, 1, 3, 0,10, 0.00,60.00,Tuesday
7,0.6
314,18.149158782573836
315,0.0
379,0.0
393,0.0
394,0.0
396,0.0
397,370.02598318072008
448,0.014998470000000002
449,59.94126558934003
450,54.47972431706153
587,615.1544821005692
588,50.24163184425484
589,55.14640761539963
590,0.014998470000000002
120,2444956.135562049
2,3, 1, 3, 0,11, 0.00,60.00,Tuesday
7,1.1
314,20.157609621254449
315,0.0
379,0.0
393,0.0
394,0.0
396,0.0
397,927.9431186230506
448,0.03285379142857143
449,59.93599234816672
450,49.65440851503068
587,1357.4839493425754
588,50.039625085812719
589,59.95208851350239
590,0.03285379142857143
120,5081342.217633273
2,3, 1, 3, 0,12, 0.00,60.00,Tuesday
7,1.6
314,20.399214432566187
315,0.0
379,0.0
393,0.0
394,0.0
396,0.0
397,810.0174737106313
448,0.029996940000000004
449,59.95400173688168
450,49.65623864876953
587,1261.7692374586397
588,49.9393956043152
589,60.0
590,0.029996940000000004
120,4779969.254851103
2,3, 1, 3, 0,13, 0.00,60.00,Tuesday
7,2.1
314,20.270583969222188
315,0.0
379,0.0
393,0.0
394,0.0
396,0.0
397,804.9271046225577
448,0.029996940000000004
449,59.96790810078196
450,49.70058343506922
587,1269.1327436132144
588,49.88065491091993
589,60.0
590,0.029996940000000004
120,4864077.877007572
2,3, 1, 3, 0,14, 0.00,60.00,Tuesday
7,1.7
314,20.10992620932695
315,0.0
379,0.0
393,0.0
394,0.0
396,0.0
397,804.5455718330479
448,0.029996940000000004
449,59.97761024165692
450,49.69285696728383
587,1273.6353034008787
588,49.844736602900109
589,60.0
590,0.029996940000000004
120,4837087.092243163
2,3, 1, 3, 0,15, 0.00,60.00,Tuesday
7,1.4
314,20.076958575396728
315,0.0
379,0.0
393,0.0
394,0.0
396,0.0
397,830.865406433496
448,0.031168695468750009
449,59.9844802805159
450,49.721256605774808
587,1326.2324140683713
588,49.82288869520751
589,60.0
590,0.031168695468750009
120,5019236.690646137
2,3, 1, 3, 0,16, 0.00,60.00,Tuesday
7,1.0
314,20.07388977106688
315,0.0
379,0.0
393,0.0
394,0.0
396,0.0
397,851.2392010838049
448,0.032106099843750009
449,59.9893819066518
450,49.766995659630818
587,1366.6114973493966
588,49.81921874317469
589,60.0
590,0.032106099843750009
120,5128601.390457828
2,3, 1, 3, 0,17, 0.00,60.00,Tuesday
7,1.0
314,20.06923559997843
315,0.0
379,0.0
393,0.0
394,0.0
396,0.0
397,839.273973263521
448,0.03163739765625
449,59.99275931494266
450,49.75268523353955
587,1346.4265396221488
588,49.82099186317589
589,60.0
590,0.03163739765625
120,5077535.542639735
2,3, 1, 3, 0,18, 0.00,60.00,Tuesday
7,1.0
314,20.331295171317398
315,0.0
379,0.0
393,0.0
394,0.0
396,0.0
397,802.2127073965528
448,0.029996940000000004
449,59.99499948384814
450,49.68285926040308
587,1278.1286231524957
588,49.808891882388618
589,59.99999999999999
590,0.029996940000000004
120,4961263.043348985
2,3, 1, 3, 0,19, 0.00,60.00,Tuesday
7,1.0
314,20.828941132302917
315,0.0
379,0.0
393,0.0
394,0.0
396,0.0
397,405.5964208773435
448,0.014998470000000002
449,59.996254574536518
450,54.87881453507896
587,639.5949580741717
588,49.80081537869815
589,54.900602591856998
590,0.014998470000000002
120,2655341.8490670186
2,3, 1, 3, 0,20, 0.00,60.00,Tuesday
7,1.0
314,20.5640235639561
315,0.0
379,0.0
393,0.0
394,0.0
396,0.0
397,393.0849472418116
448,0.014998470000000002
449,59.9967518773721
450,54.820798922191588
587,639.9519095683315
588,49.796659254434057
589,54.89929399776607
590,0.014998470000000002
120,2591826.8744459936
2,3, 1, 3, 0,21, 0.00,60.00,Tuesday
7,1.0
314,19.680720318720309
315,0.0
379,0.0
393,0.0
394,0.0
396,0.0
397,0.0
448,0.0
449,59.99710163449971
450,59.99710163449971
587,0.0
588,49.78814716528642
589,49.78814716528642
590,0.0
120,259200.0
2,3, 1, 3, 0,22, 0.00,60.00,Tuesday
7,1.0
314,19.405112086026628
315,0.0
379,0.0
393,0.0
394,0.0
396,0.0
397,0.0
448,0.0
449,59.99710163449971
450,59.99710163449971
587,0.0
588,49.78814716528642
589,49.78814716528642
590,0.0
120,324000.0
2,3, 1, 3, 0,23, 0.00,60.00,Tuesday
7,1.4
314,18.89867985654952
315,0.0
379,0.0
393,0.0
394,0.0
396,0.0
397,0.0
448,0.0
449,59.99710163449971
450,59.99710163449971
587,0.0
588,49.78814716528642
589,49.78814716528642
590,0.0
120,216000.0
2,3, 1, 3, 0,24, 0.00,60.00,Tuesday
7,1.7
314,18.605295557329705
315,0.0
379,0.0
393,0.0
394,0.0
396,0.0
397,0.0
448,0.0
449,59.99710163449971
450,59.99710163449971
587,0.0
588,49.78814716528642
589,49.78814716528642
590,0.0
120,57600.0
2,4, 1, 4, 0, 1, 0.00,60.00,Wednesday
7,2.1
314,18.184043376955026
315,0.0
379,0.0
393,0.0
394,0.0
396,0.0
397,0.0
448,0.0
449,59.99710163449971
450,59.99710163449971
587,0.0
588,49.78814716528642
589,49.78814716528642
590,0.0
120,43200.0
2,4, 1, 4, 0, 2, 0.00,60.00,Wednesday
7,1.4
314,17.9731818295647
315,0.0
379,0.0
393,0.0
394,0.0
396,0.0
397,0.0
448,0.0
449,59.99710163449971
450,59.99710163449971
587,0.0
588,49.78814716528642
589,49.78814716528642
590,0.0
120,43200.0
2,4, 1, 4, 0, 3, 0.00,60.00,Wednesday
7,0.8
314,17.853719396352934
315,0.0
379,0.0
393,0.0
394,0.0
396,0.0
397,0.0
448,0.0
449,59.99710163449971
450,59.99710163449971
587,0.0
588,49.78814716528642
589,49.78814716528642
590,0.0
120,43200.0
2,4, 1, 4, 0, 4, 0.00,60.00,Wednesday
7,0.1
314,17.745122803189319
315,0.0
379,0.0
393,0.0
394,0.0
396,0.0
397,0.0
448,0.0
449,59.99710163449971
450,59.99710163449971
587,0.0
588,49.78814716528642
589,49.78814716528642
590,0.0
120,43200.0
2,4, 1, 4, 0, 5, 0.00,60.00,Wednesday
7,-0.3
314,17.631874558584813
315,0.0
379,0.0
393,0.0
394,0.0
396,0.0
397,0.0
448,0.0
449,59.99710163449971
450,59.99710163449971
587,0.0
588,49.78814716528642
589,49.78814716528642
590,0.0
120,43200.0
2,4, 1, 4, 0, 6, 0.00,60.00,Wednesday
7,-0.7
314,21.726843713838677
315,0.0
379,0.0
393,0.0
394,0.0
396,0.0
397,1028.7266617076693
448,0.03532972933333334
449,59.92725378938808
450,50.10762702599756
587,1461.5471574317598
588,49.88528439700675
589,59.83783127078272
590,0.03532972933333334
120,5304769.766754337
2,4, 1, 4, 0, 7, 0.00,60.00,Wednesday
7,-1.1
314,21.960104230118746
315,0.0
379,0.0
393,0.0
394,0.0
396,0.0
397,1032.5272736920567
448,0.04304248421875001
449,59.87806277644333
450,50.5184937580494
587,1739.9887324545953
588,50.127939108650277
589,59.815928841538198
590,0.04304248421875001
120,6465559.4368365439
2,4, 1, 4, 0, 8, 0.00,60.00,Wednesday
7,-1.4
314,22.111829134162269
315,0.0
379,0.0
393,0.0
394,0.0
396,0.0
397,982.7839378539925
448,0.0389022815625
449,59.904881023728638
450,50.361294831930567
587,1586.8456142771988
588,50.24405607839593
589,60.0
590,0.0389022815625
120,6065444.211397916
2,4, 1, 4, 0, 9, 0.00,60.00,Wednesday
7,-1.8
314,19.940876616965544
315,0.0
379,0.0
393,0.0
394,0.0
396,0.0
397,879.7428591715877
448,0.041323909531249997
449,59.92251724636341
450,51.75373935314859
587,1660.870979999326
588,50.320168640468107
589,58.561048518542339
590,0.041323909531249997
120,6281535.527997575
2,4, 1, 4, 0,10, 0.00,60.00,Wednesday
7,-2.1
314,20.09755336757942
315,0.0
379,0.0
393,0.0
394,0.0
396,0.0
397,1106.292320924594
448,0.04382365453125
449,59.948291580569449
450,50.23189021099817
587,1770.35082686105
588,50.338233752926047
589,60.0
590,0.04382365453125
120,6603662.976699781
2,4, 1, 4, 0,11, 0.00,60.00,Wednesday
7,-2.4
314,20.083657430647798
315,0.0
379,0.0
393,0.0
394,0.0
396,0.0
397,883.8834252705778
448,0.033355972343750008
449,59.96761960889461
450,49.78462891917834
587,1360.5831776568023
588,50.24423845467647
589,60.00000000000001
590,0.033355972343750008
120,5092499.439564488
2,4, 1, 4, 0,12, 0.00,60.00,Wednesday
7,-2.6
314,20.08165560534624
315,0.0
379,0.0
393,0.0
394,0.0
396,0.0
397,898.3762006162893
448,0.034293376718750007
449,59.97840799739763
450,49.86890804600091
587,1415.4722186661738
588,50.12798937203695
589,60.0
590,0.034293376718750007
120,5333299.987198226
2,4, 1, 4, 0,13, 0.00,60.00,Wednesday
7,-2.9
314,20.079325635501826
315,0.0
379,0.0
393,0.0
394,0.0
396,0.0
397,903.2449816038071
448,0.034605844843750007
449,59.98571623807686
450,49.9017595823731
587,1436.9866640746386
588,50.068375917682129
589,60.0
590,0.034605844843750007
120,5468351.990668699
2,4, 1, 4, 0,14, 0.00,60.00,Wednesday
7,-3.5
314,20.085577592861804
315,0.0
379,0.0
393,0.0
394,0.0
396,0.0
397,980.0922392623878
448,0.038199228281250007
449,59.99075850695222
450,50.0813836101297
587,1586.2307610447353
588,50.06818141570729
589,60.0
590,0.038199228281250007
120,5962430.739761047
2,4, 1, 4, 0,15, 0.00,60.00,Wednesday
7,-4.2
314,20.0911454534363
315,0.0
379,0.0
393,0.0
394,0.0
396,0.0
397,1029.5552997587379
448,0.040620856250000007
449,59.99423521614779
450,50.20608196028991
587,1677.3628427602894
588,50.123737242257657
589,59.99999999999999
590,0.040620856250000007
120,6283306.233937042
2,4, 1, 4, 0,16, 0.00,60.00,Wednesday
7,-4.8
314,20.093362112482298
315,0.0
379,0.0
393,0.0
394,0.0
396,0.0
397,1075.608879179687
448,0.042964367187500008
449,59.99650485174547
450,50.32711514340053
587,1758.9469468760701
588,50.20835868006738
589,60.0
590,0.042964367187500008
120,6541009.008753852
2,4, 1, 4, 0,17, 0.00,60.00,Wednesday
7,-5.1
314,20.09143647835917
315,0.0
379,0.0
393,0.0
394,0.0
396,0.0
397,1080.9000909715128
448,0.0432768353125
449,59.997916302653077
450,50.34651821323765
587,1757.523778858997
588,50.286994760364617
589,60.00000000000001
590,0.0432768353125
120,6557485.60389239
2,4, 1, 4, 0,18, 0.00,60.00,Wednesday
7,-5.5
314,20.080036781932575
315,0.0
379,0.0
393,0.0
394,0.0
396,0.0
397,974.7579691362092
448,0.03804299421875001
449,59.99872453940879
450,50.09152497005171
587,1545.2664340083718
588,50.28513734455024
589,59.99999999999999
590,0.03804299421875001
120,5922959.162430138
2,4, 1, 4, 0,19, 0.00,60.00,Wednesday
7,-5.8
314,20.569868855655444
315,0.0
379,0.0
393,0.0
394,0.0
396,0.0
397,484.0807049331589
448,0.017998164000000005
449,59.99909516471194
450,53.82196329831913
587,736.7813346964342
588,50.2089477344049
589,56.08347341914622
590,0.017998164000000005
120,3005212.804907163
2,4, 1, 4, 0,20, 0.00,60.00,Wednesday
7,-5.9
314,20.526923645255005
315,0.0
379,0.0
393,0.0
394,0.0
396,0.0
397,393.1142194910568
448,0.014998470000000002
449,59.99927420656924
450,54.870758461228508
587,618.646969771099
588,50.12745330383322
589,55.06010184243229
590,0.014998470000000002
120,2515129.0911759568
2,4, 1, 4, 0,21, 0.00,60.00,Wednesday
7,-6.1
314,18.958254133345546
315,0.0
379,0.0
393,0.0
394,0.0
396,0.0
397,0.0
448,0.0
449,59.999322555498519
450,59.999322555498519
587,0.0
588,50.10418725229357
589,50.10418725229357
590,0.0
120,259200.0
2,4, 1, 4, 0,22, 0.00,60.00,Wednesday
7,-6.2
314,18.726371673906319
315,0.0
379,0.0
393,0.0
394,0.0
396,0.0
397,0.0
448,0.0
449,59.999322555498519
450,59.999322555498519
587,0.0
588,50.10418725229356
589,50.10418725229356
590,0.0
120,324000.0
2,4, 1, 4, 0,23, 0.00,60.00,Wednesday
7,-6.2
314,18.259941502557156
315,0.0
379,0.0
393,0.0
394,0.0
396,0.0
397,0.0
448,0.0
449,59.999322555498519
450,59.999322555498519
587,0.0
588,50.10418725229356
589,50.10418725229356
590,0.0
120,216000.0
2,4, 1, 4, 0,24, 0.00,60.00,Wednesday
7,-6.3
314,17.95427330703432
315,0.0
379,0.0
393,0.0
394,0.0
396,0.0
397,0.0
448,0.0
449,59.999322555498519
450,59.999322555498519
587,0.0
588,50.10418725229356
589,50.10418725229356
590,0.0
120,57600.0
2,5, 1, 5, 0, 1, 0.00,60.00,Thursday
7,-6.3
314,17.4539758412032
315,0.0
379,0.0
393,0.0
394,0.0
396,0.0
397,0.0
448,0.0
449,59.999322555498519
450,59.999322555498519
587,0.0
588,50.10418725229356
589,50.10418725229356
590,0.0
120,43200.0
2,5, 1, 5, 0, 2, 0.00,60.00,Thursday
7,-6.4
314,17.301142608186014
315,0.0
379,0.0
393,0.0
394,0.0
396,0.0
397,0.0
448,0.0
449,59.999322555498519
450,59.999322555498519
587,0.0
588,50.10418725229356
589,50.10418725229356
590,0.0
120,43200.0
2,5, 1, 5, 0, 3, 0.00,60.00,Thursday
7,-6.5
314,17.19920170185757
315,0.0
379,0.0
393,0.0
394,0.0
396,0.0
397,0.0
448,0.0
449,59.999322555498519
450,59.999322555498519
587,0.0
588,50.10418725229356
589,50.10418725229356
590,0.0
120,43200.0
2,5, 1, 5, 0, 4, 0.00,60.00,Thursday
7,-6.6
314,17.07834474247653
315,0.0
379,0.0
393,0.0
394,0.0
396,0.0
397,0.0
448,0.0
449,59.999322555498519
450,59.999322555498519
587,0.0
588,50.10418725229356
589,50.10418725229356
590,0.0
120,43200.0
2,5, 1, 5, 0, 5, 0.00,60.00,Thursday
7,-6.4
314,16.969281131631115
315,0.0
379,0.0
393,0.0
394,0.0
396,0.0
397,0.0
448,0.0
449,59.999322555498519
450,59.999322555498519
587,0.0
588,50.10418725229356
589,50.10418725229356
590,0.0
120,43200.0
2,5, 1, 5, 0, 6, 0.00,60.00,Thursday
7,-6.3
314,21.344665262448254
315,0.0
379,0.0
393,0.0
394,0.0
396,0.0
397,1203.5067612329867
448,0.04213855857142858
449,59.95385513642672
450,50.35397815813175
587,1709.151321161093
588,50.170537401392007
589,59.8868482213407
590,0.04213855857142858
120,6196144.756179935
2,5, 1, 5, 0, 7, 0.00,60.00,Thursday
7,-6.1
314,21.61142373743664
315,0.0
379,0.0
393,0.0
394,0.0
396,0.0
397,1158.8302885048201
448,0.049994899999999998
449,59.94426833510465
450,50.83028504767128
587,1996.0567482114184
588,50.39297216763599
589,59.941813853953679
590,0.049994899999999998