Program Version,EnergyPlus, Version 8.9.0-40101eaafd, YMD=2019.01.24 12:22
1,5,Environment Title[],Latitude[deg],Longitude[deg],Time Zone[],Elevation[m]
2,8,Day of Simulation[],Month[],Day of Month[],DST Indicator[1=yes 0=no],Hour[],StartMinute[],EndMinute[],DayType
3,5,Cumulative Day of Simulation[],Month[],Day of Month[],DST Indicator[1=yes 0=no],DayType  ! When Daily Report Variables Requested
4,2,Cumulative Days of Simulation[],Month[]  ! When Monthly Report Variables Requested
5,1,Cumulative Days of Simulation[] ! When Run Period Report Variables Requested
6,1,Calendar Year of Simulation[] ! When Annual Report Variables Requested
7,1,Environment,Site Outdoor Air Drybulb Temperature [C] !Hourly
314,1,ZONE ONE,Zone Air Temperature [C] !Hourly
315,1,ERV_1_HX,Heat Exchanger Total Heating Rate [W] !Hourly
379,1,ERV_1_FANSUPPLY,Fan Electric Power [W] !Hourly
393,1,ERV_1_FANSUPPLY,Fan Air Mass Flow Rate [kg/s] !Hourly
394,1,ERV_1_FANEXHAUST,Fan Electric Power [W] !Hourly
396,1,ERV_1_FANEXHAUST,Fan Air Mass Flow Rate [kg/s] !Hourly
397,1,RADIATOR,Baseboard Total Heating Rate [W] !Hourly
448,1,RADIATOR,Baseboard Hot Water Mass Flow Rate [kg/s] !Hourly
449,1,RADIATOR,Baseboard Water Inlet Temperature [C] !Hourly
450,1,RADIATOR,Baseboard Water Outlet Temperature [C] !Hourly
587,1,DISTRICT HEATING 1,District Heating Rate [W] !Hourly
588,1,DISTRICT HEATING 1,District Heating Inlet Temperature [C] !Hourly
589,1,DISTRICT HEATING 1,District Heating Outlet Temperature [C] !Hourly
590,1,DISTRICT HEATING 1,District Heating Mass Flow Rate [kg/s] !Hourly
120,1,DistrictHeating:Facility [J] !Hourly
End of Data Dictionary
1,ANNUAL SIM 1,  59.65,  17.95,   1.00,  61.00
2,1, 1, 1, 0, 1, 0.00,60.00,Sunday
7,4.0
314,18.2247776016904
315,0.0
379,0.0
393,0.0
394,0.0
396,0.0
397,0.0
448,0.0
449,55.0
450,55.0
587,0.0
588,45.53841546632255
589,45.53841546632255
590,0.0
120,43200.0
2,1, 1, 1, 0, 2, 0.00,60.00,Sunday
7,5.3
314,18.137807750435927
315,0.0
379,0.0
393,0.0
394,0.0
396,0.0
397,0.0
448,0.0
449,55.0
450,55.0
587,0.0
588,45.53841546632255
589,45.53841546632255
590,0.0
120,43200.0
2,1, 1, 1, 0, 3, 0.00,60.00,Sunday
7,6.2
314,18.125711122241019
315,0.0
379,0.0
393,0.0
394,0.0
396,0.0
397,0.0
448,0.0
449,55.0
450,55.0
587,0.0
588,45.53841546632255
589,45.53841546632255
590,0.0
120,43200.0
2,1, 1, 1, 0, 4, 0.00,60.00,Sunday
7,6.8
314,18.1031197750663
315,0.0
379,0.0
393,0.0
394,0.0
396,0.0
397,0.0
448,0.0
449,55.0
450,55.0
587,0.0
588,45.53841546632255
589,45.53841546632255
590,0.0
120,43200.0
2,1, 1, 1, 0, 5, 0.00,60.00,Sunday
7,7.2
314,18.065179819743287
315,0.0
379,0.0
393,0.0
394,0.0
396,0.0
397,0.0
448,0.0
449,55.0
450,55.0
587,0.0
588,45.53841546632255
589,45.53841546632255
590,0.0
120,43200.0
2,1, 1, 1, 0, 6, 0.00,60.00,Sunday
7,7.5
314,21.852594364562017
315,0.0
379,0.0
393,0.0
394,0.0
396,0.0
397,837.2086762554529
448,0.03168203595982143
449,55.00000000000001
450,47.257873003808999
587,1241.2930101843697
588,45.637637357714
589,53.66514872918971
590,0.03168203595982143
120,4511854.83666373
2,1, 1, 1, 0, 7, 0.00,60.00,Sunday
7,7.5
314,22.105921386691056
315,0.0
379,0.0
393,0.0
394,0.0
396,0.0
397,783.7906031853846
448,0.0323404509375
449,55.0
450,45.920868525379848
587,1250.0039671899187
588,45.7535850469222
589,55.0
590,0.0323404509375
120,4564814.281883707
2,1, 1, 1, 0, 8, 0.00,60.00,Sunday
7,6.7
314,21.72471320456492
315,0.0
379,0.0
393,0.0
394,0.0
396,0.0
397,722.0108907090582
448,0.029996940000000004
449,55.0
450,45.740398657182279
587,1153.528670210913
588,45.8006208066017
589,55.0
590,0.029996940000000004
120,4332703.212759287
2,1, 1, 1, 0, 9, 0.00,60.00,Sunday
7,6.0
314,21.502518025283224
315,0.0
379,0.0
393,0.0
394,0.0
396,0.0
397,739.9737313711562
448,0.029996940000000004
449,55.0
450,45.666590675354047
587,1155.2265588172766
588,45.78707419131024
589,55.0
590,0.029996940000000004
120,4425215.611742196
2,1, 1, 1, 0,10, 0.00,60.00,Sunday
7,5.2
314,21.559251643101093
315,0.0
379,0.0
393,0.0
394,0.0
396,0.0
397,742.685529633797
448,0.029996940000000004
449,55.0
450,45.623103532099147
587,1158.1926201486601
588,45.763409409521788
589,55.00000000000001
590,0.029996940000000004
120,4421493.432535177
2,1, 1, 1, 0,11, 0.00,60.00,Sunday
7,5.2
314,20.599379438152626
315,0.0
379,0.0
393,0.0
394,0.0
396,0.0
397,709.5963886222482
448,0.029996940000000004
449,55.0
450,45.5084676534904
587,1162.295554140661
588,45.73067396484872
589,55.0
590,0.029996940000000004
120,4414663.994906379
2,1, 1, 1, 0,12, 0.00,60.00,Sunday
7,5.2
314,20.63261982512134
315,0.0
379,0.0
393,0.0
394,0.0
396,0.0
397,753.226242487139
448,0.029996940000000004
449,55.0
450,45.347311878595068
587,1172.5219075716714
588,45.64908213776818
589,54.99999999999999
590,0.029996940000000004
120,4473078.867258017
2,1, 1, 1, 0,13, 0.00,60.00,Sunday
7,5.2
314,18.503709367902503
315,0.0
379,0.0
393,0.0
394,0.0
396,0.0
397,0.0
448,0.0
449,54.99999999999999
450,54.99999999999999
587,0.0
588,45.60905727961649
589,45.60905727961649
590,0.0
120,302400.0
2,1, 1, 1, 0,14, 0.00,60.00,Sunday
7,4.6
314,18.581896395772067
315,0.0
379,0.0
393,0.0
394,0.0
396,0.0
397,317.9146828134343
448,0.011998776000000003
449,55.0
450,50.93075567434333
587,473.464032555474
588,45.569917477549868
589,49.345831674275249
590,0.011998776000000003
120,1970870.5171997064
2,1, 1, 1, 0,15, 0.00,60.00,Sunday
7,4.1
314,19.473077344403039
315,0.0
379,0.0
393,0.0
394,0.0
396,0.0
397,519.2002613021593
448,0.019997960000000003
449,54.99999999999999
450,48.395505054514568
587,796.7301105148058
588,45.4633838911422
589,51.81739910265202
590,0.019997960000000003
120,3127428.397853301
2,1, 1, 1, 0,16, 0.00,60.00,Sunday
7,3.5
314,20.31836669731646
315,0.0
379,0.0
393,0.0
394,0.0
396,0.0
397,824.3398608799016
448,0.031819670729166669
449,55.0
450,45.43607639523039
587,1270.3212866503795
588,45.449621757792517
589,55.0
590,0.031819670729166669
120,4796356.631941367
2,1, 1, 1, 0,17, 0.00,60.00,Sunday
7,3.2
314,21.61499699453473
315,0.0
379,0.0
393,0.0
394,0.0
396,0.0
397,802.2033875785158
448,0.031246812500000003
449,55.0
450,45.74481141681122
587,1239.544366912352
588,45.51143472910327
589,55.0
590,0.031246812500000003
120,4692759.720884467
2,1, 1, 1, 0,18, 0.00,60.00,Sunday
7,2.9
314,19.835030785220057
315,0.0
379,0.0
393,0.0
394,0.0
396,0.0
397,0.0
448,0.0
449,54.99999999999999
450,54.99999999999999
587,0.0
588,45.570652637910779
589,45.570652637910779
590,0.0
120,324000.0
2,1, 1, 1, 0,19, 0.00,60.00,Sunday
7,2.6
314,19.41057215732537
315,0.0
379,0.0
393,0.0
394,0.0
396,0.0
397,0.0
448,0.0
449,54.99999999999998
450,54.99999999999998
587,0.0
588,45.57065263791077
589,45.57065263791077
590,0.0
120,302400.0
2,1, 1, 1, 0,20, 0.00,60.00,Sunday
7,2.5
314,19.189600536022373
315,0.0
379,0.0
393,0.0
394,0.0
396,0.0
397,0.0
448,0.0
449,55.0
450,55.0
587,0.0
588,45.57065263791078
589,45.57065263791078
590,0.0
120,252000.0
2,1, 1, 1, 0,21, 0.00,60.00,Sunday
7,2.4
314,18.989790552767134
315,0.0
379,0.0
393,0.0
394,0.0
396,0.0
397,0.0
448,0.0
449,55.0
450,55.0
587,0.0
588,45.57065263791078
589,45.57065263791078
590,0.0
120,216000.0
2,1, 1, 1, 0,22, 0.00,60.00,Sunday
7,2.3
314,18.910047787440435
315,0.0
379,0.0
393,0.0
394,0.0
396,0.0
397,0.0
448,0.0
449,55.0
450,55.0
587,0.0
588,45.57065263791078
589,45.57065263791078
590,0.0
120,244800.0
2,1, 1, 1, 0,23, 0.00,60.00,Sunday
7,2.3
314,18.743340342307378
315,0.0
379,0.0
393,0.0
394,0.0
396,0.0
397,0.0
448,0.0
449,55.0
450,55.0
587,0.0
588,45.57065263791078
589,45.57065263791078
590,0.0
120,187200.0
2,1, 1, 1, 0,24, 0.00,60.00,Sunday
7,2.2
314,18.518312241143414
315,0.0
379,0.0
393,0.0
394,0.0
396,0.0
397,0.0
448,0.0
449,55.0
450,55.0
587,0.0
588,45.57065263791078
589,45.57065263791078
590,0.0
120,86400.0
2,2, 1, 2, 0, 1, 0.00,60.00,Monday
7,2.2
314,18.00090230260409
315,0.0
379,0.0
393,0.0
394,0.0
396,0.0
397,0.0
448,0.0
449,55.0
450,55.0
587,0.0
588,45.57065263791078
589,45.57065263791078
590,0.0
120,43200.0
2,2, 1, 2, 0, 2, 0.00,60.00,Monday
7,2.2
314,17.826047666651957
315,0.0
379,0.0
393,0.0
394,0.0
396,0.0
397,0.0
448,0.0
449,55.0
450,55.0
587,0.0
588,45.57065263791078
589,45.57065263791078
590,0.0
120,43200.0
2,2, 1, 2, 0, 3, 0.00,60.00,Monday
7,2.1
314,17.73207069013026
315,0.0
379,0.0
393,0.0
394,0.0
396,0.0
397,0.0
448,0.0
449,55.0
450,55.0
587,0.0
588,45.57065263791078
589,45.57065263791078
590,0.0
120,43200.0
2,2, 1, 2, 0, 4, 0.00,60.00,Monday
7,2.1
314,17.667110173743756
315,0.0
379,0.0
393,0.0
394,0.0
396,0.0
397,0.0
448,0.0
449,55.0
450,55.0
587,0.0
588,45.57065263791078
589,45.57065263791078
590,0.0
120,43200.0
2,2, 1, 2, 0, 5, 0.00,60.00,Monday
7,2.1
314,17.58701086274179
315,0.0
379,0.0
393,0.0
394,0.0
396,0.0
397,0.0
448,0.0
449,55.0
450,55.0
587,0.0
588,45.57065263791078
589,45.57065263791078
590,0.0
120,43200.0
2,2, 1, 2, 0, 6, 0.00,60.00,Monday
7,2.0
314,21.522034763460419
315,0.0
379,0.0
393,0.0
394,0.0
396,0.0
397,975.6771902979204
448,0.036235142924107139
449,55.00000000000001
450,45.889852776839628
587,1415.2908093703898
588,45.66546181825149
589,55.0
590,0.036235142924107139
120,5138246.913733403
2,2, 1, 2, 0, 7, 0.00,60.00,Monday
7,2.0
314,21.84854822110896
315,0.0
379,0.0
393,0.0
394,0.0
396,0.0
397,1008.9186095619951
448,0.04616716546875001
449,55.0
450,46.46449857912967
587,1751.3476124706149
588,45.931982757509697
589,55.0
590,0.04616716546875001
120,6506451.404894213
2,2, 1, 2, 0, 8, 0.00,60.00,Monday
7,2.0
314,20.257590148186155
315,0.0
379,0.0
393,0.0
394,0.0
396,0.0
397,307.6674566684277
448,0.014998470000000002
449,55.0
450,50.14105199873803
587,564.4790758948973
588,46.02674912487659
589,50.528421684290467
590,0.014998470000000002
120,2384924.67322163
2,2, 1, 2, 0, 9, 0.00,60.00,Monday
7,1.9
314,20.095559050395868
315,0.0
379,0.0
393,0.0
394,0.0
396,0.0
397,950.8541273930964
448,0.03944910078125
449,55.0
450,45.79558098976374
587,1496.6940752822002
588,45.92387534191635
589,55.0
590,0.03944910078125
120,5690498.671015921
2,2, 1, 2, 0,10, 0.00,60.00,Monday
7,1.9
314,20.086624104047766
315,0.0
379,0.0
393,0.0
394,0.0
396,0.0
397,857.2359067196371
448,0.034683961875
449,55.0
450,45.536498772917827
587,1326.0322664342264
588,45.853996471533587
589,55.0
590,0.034683961875
120,5004116.159163215
2,2, 1, 2, 0,11, 0.00,60.00,Monday
7,1.9
314,20.081808280279107
315,0.0
379,0.0
393,0.0
394,0.0
396,0.0
397,821.3388115701057
448,0.033121621250000007
449,55.0
450,45.49855518128454
587,1278.902968120839
588,45.76293768241346
589,55.0
590,0.033121621250000007
120,4798450.685235021
2,2, 1, 2, 0,12, 0.00,60.00,Monday
7,1.9
314,20.075777174464194
315,0.0
379,0.0
393,0.0
394,0.0
396,0.0
397,764.6966430442395
448,0.030621876250000007
449,55.0
450,45.404572652186207
587,1192.4587611331388
588,45.684180330683989
589,55.0
590,0.030621876250000007
120,4530451.540079299
2,2, 1, 2, 0,13, 0.00,60.00,Monday
7,1.9
314,20.07159088782211
315,0.0
379,0.0
393,0.0
394,0.0
396,0.0
397,750.0272038182426
448,0.029996940000000004
449,55.0
450,45.38957045401975
587,1176.6209241150857
588,45.61637760315736
589,55.0
590,0.029996940000000004
120,4531035.326814309
2,2, 1, 2, 0,14, 0.00,60.00,Monday
7,1.6
314,20.07331240746589
315,0.0
379,0.0
393,0.0
394,0.0
396,0.0
397,813.2646842040372
448,0.033121621250000007
449,55.0
450,45.54579552763501
587,1302.4366829559974
588,45.592885473237618
589,55.00000000000001
590,0.033121621250000007
120,4940772.058641591
2,2, 1, 2, 0,15, 0.00,60.00,Monday
7,1.3
314,20.074727902128399
315,0.0
379,0.0
393,0.0
394,0.0
396,0.0
397,844.8956078982703
448,0.03476207890625
449,55.0
450,45.63139396363866
587,1363.795478427953
588,45.61456398620773
589,55.0
590,0.03476207890625
120,5154463.72234063
2,2, 1, 2, 0,16, 0.00,60.00,Monday
7,1.0
314,20.079167295633419
315,0.0
379,0.0
393,0.0
394,0.0
396,0.0
397,876.3076793970815
448,0.036402536562500007
449,55.0
450,45.716206955948027
587,1421.3724396073242
588,45.659152861861418
589,55.00000000000001
590,0.036402536562500007
120,5325740.782586367
2,2, 1, 2, 0,17, 0.00,60.00,Monday
7,0.9
314,20.075473415916428
315,0.0
379,0.0
393,0.0
394,0.0
396,0.0
397,870.1258562374201
448,0.03616818546875001
449,55.0
450,45.70803067141372
587,1405.9288833191963
588,45.700795718134987
589,55.0
590,0.03616818546875001
120,5291743.979949106
2,2, 1, 2, 0,18, 0.00,60.00,Monday
7,0.7
314,20.064885510034754
315,0.0
379,0.0
393,0.0
394,0.0
396,0.0
397,753.1416244529817
448,0.030387525156250006
449,55.0
450,45.43030332399658
587,1183.8933088426636
588,45.679765750635599
589,55.0
590,0.030387525156250006
120,4622015.911833589
2,2, 1, 2, 0,19, 0.00,60.00,Monday
7,0.6
314,20.65812591985739
315,0.0
379,0.0
393,0.0
394,0.0
396,0.0
397,453.9390906895918
448,0.017998164000000005
449,55.0
450,49.257123500326
587,704.8133292062814
588,45.63152527931269
589,51.25244968243
590,0.017998164000000005
120,2890127.9851426135
2,2, 1, 2, 0,20, 0.00,60.00,Monday
7,0.6
314,20.60993182079236
315,0.0
379,0.0
393,0.0
394,0.0
396,0.0
397,363.8183732374609
448,0.014998470000000002
449,55.0
450,50.239560399543339
587,588.4656715433857
588,45.61235988265943
589,50.30540944239821
590,0.014998470000000002
120,2406476.4175561887
2,2, 1, 2, 0,21, 0.00,60.00,Monday
7,0.6
314,19.237394113798439
315,0.0
379,0.0
393,0.0
394,0.0
396,0.0
397,0.0
448,0.0
449,55.0
450,55.0
587,0.0
588,45.60588822281584
589,45.60588822281584
590,0.0
120,259200.0
2,2, 1, 2, 0,22, 0.00,60.00,Monday
7,0.6
314,19.05118616647909
315,0.0
379,0.0
393,0.0
394,0.0
396,0.0
397,0.0
448,0.0
449,55.0
450,55.0
587,0.0
588,45.60588822281584
589,45.60588822281584
590,0.0
120,324000.0
2,2, 1, 2, 0,23, 0.00,60.00,Monday
7,0.8
314,18.654892120556249
315,0.0
379,0.0
393,0.0
394,0.0
396,0.0
397,0.0
448,0.0
449,55.0
450,55.0
587,0.0
588,45.60588822281584
589,45.60588822281584
590,0.0
120,216000.0
2,2, 1, 2, 0,24, 0.00,60.00,Monday
7,0.9
314,18.36494617092454
315,0.0
379,0.0
393,0.0
394,0.0
396,0.0
397,0.0
448,0.0
449,55.0
450,55.0
587,0.0
588,45.60588822281584
589,45.60588822281584
590,0.0
120,57600.0
2,3, 1, 3, 0, 1, 0.00,60.00,Tuesday
7,1.1
314,17.91708950912554
315,0.0
379,0.0
393,0.0
394,0.0
396,0.0
397,0.0
448,0.0
449,55.0
450,55.0
587,0.0
588,45.60588822281584
589,45.60588822281584
590,0.0
120,43200.0
2,3, 1, 3, 0, 2, 0.00,60.00,Tuesday
7,0.9
314,17.76747544842505
315,0.0
379,0.0
393,0.0
394,0.0
396,0.0
397,0.0
448,0.0
449,55.0
450,55.0
587,0.0
588,45.60588822281584
589,45.60588822281584
590,0.0
120,43200.0
2,3, 1, 3, 0, 3, 0.00,60.00,Tuesday
7,0.6
314,17.672921031957796
315,0.0
379,0.0
393,0.0
394,0.0
396,0.0
397,0.0
448,0.0
449,55.0
450,55.0
587,0.0
588,45.60588822281584
589,45.60588822281584
590,0.0
120,43200.0
2,3, 1, 3, 0, 4, 0.00,60.00,Tuesday
7,0.4
314,17.557086955980556
315,0.0
379,0.0
393,0.0
394,0.0
396,0.0
397,0.0
448,0.0
449,55.0
450,55.0
587,0.0
588,45.60588822281584
589,45.60588822281584
590,0.0
120,43200.0
2,3, 1, 3, 0, 5, 0.00,60.00,Tuesday
7,0.6
314,17.480036588814156
315,0.0
379,0.0
393,0.0
394,0.0
396,0.0
397,0.0
448,0.0
449,55.0
450,55.0
587,0.0
588,45.60588822281584
589,45.60588822281584
590,0.0
120,43200.0
2,3, 1, 3, 0, 6, 0.00,60.00,Tuesday
7,0.9
314,21.479514943461667
315,0.0
379,0.0
393,0.0
394,0.0
396,0.0
397,1008.4913703075929
448,0.037490595212053567
449,55.00000000000001
450,45.93813249318114
587,1459.0227178379694
588,45.69868280672466
589,55.00000000000001
590,0.037490595212053567
120,5295681.784216689
2,3, 1, 3, 0, 7, 0.00,60.00,Tuesday
7,1.1
314,21.86049373089176
315,0.0
379,0.0
393,0.0
394,0.0
396,0.0
397,1055.7663503274512
448,0.04871898848958332
449,55.0
450,46.60547398184269
587,1837.421449160226
588,45.98016469829265
589,55.0
590,0.04871898848958332
120,6816317.216976814
2,3, 1, 3, 0, 8, 0.00,60.00,Tuesday
7,0.9
314,22.114176541249799
315,0.0
379,0.0
393,0.0
394,0.0
396,0.0
397,985.1494963790593
448,0.043433069375
449,54.99999999999999
450,46.434505753891347
587,1591.4115526365351
588,46.234836040525838
589,55.0
590,0.043433069375
120,6081881.589491527
2,3, 1, 3, 0, 9, 0.00,60.00,Tuesday
7,0.8
314,19.964359575359706
315,0.0
379,0.0
393,0.0
394,0.0
396,0.0
397,808.385125741642
448,0.04164753723214285
449,54.99999999999999
450,47.45602215979023
587,1515.3162083097823
588,46.29626153968494
589,53.756844712435739
590,0.04164753723214285
120,5757538.349915216
2,3, 1, 3, 0,10, 0.00,60.00,Tuesday
7,0.6
314,20.093976154559614
315,0.0
379,0.0
393,0.0
394,0.0
396,0.0
397,1021.7113562701012
448,0.04351118640625
449,55.0
450,45.97187080252272
587,1595.4380292772705
588,46.228432552614957
589,54.99999999999999
590,0.04351118640625
120,5973976.905398174
2,3, 1, 3, 0,11, 0.00,60.00,Tuesday
7,1.1
314,20.076123000759958
315,0.0
379,0.0
393,0.0
394,0.0
396,0.0
397,835.2190879163792
448,0.033902791562500009
449,55.0
450,45.534428670191967
587,1264.3267547232886
588,46.07876106287183
589,55.0
590,0.033902791562500009
120,4745976.317003839
2,3, 1, 3, 0,12, 0.00,60.00,Tuesday
7,1.6
314,20.074355679348668
315,0.0
379,0.0
393,0.0
394,0.0
396,0.0
397,787.1568920340479
448,0.0317155146875
449,55.0
450,45.45126863251715
587,1205.3123537314707
588,45.908559866034867
589,55.0
590,0.0317155146875
120,4576724.473433294
2,3, 1, 3, 0,13, 0.00,60.00,Tuesday
7,2.1
314,20.12893231904347
315,0.0
379,0.0
393,0.0
394,0.0
396,0.0
397,749.7473102713484
448,0.029996940000000004
449,55.0
450,45.378221535149659
587,1156.6951828537108
588,45.77535675070694
589,55.0
590,0.029996940000000004
120,4459302.658273359
2,3, 1, 3, 0,14, 0.00,60.00,Tuesday
7,1.7
314,20.071345187762174
315,0.0
379,0.0
393,0.0
394,0.0
396,0.0
397,781.4512867587225
448,0.031559280625000008
449,55.0
450,45.4677640150351
587,1228.459396227472
588,45.68799643718953
589,55.0
590,0.031559280625000008
120,4674453.8264189
2,3, 1, 3, 0,15, 0.00,60.00,Tuesday
7,1.4
314,20.071019116242846
315,0.0
379,0.0
393,0.0
394,0.0
396,0.0
397,820.8010726370961
448,0.03351220640625
449,55.0
450,45.546370971730528
587,1309.5376134752237
588,45.65186172343783
589,55.0
590,0.03351220640625
120,4959135.408510805
2,3, 1, 3, 0,16, 0.00,60.00,Tuesday
7,1.0
314,20.073923077827489
315,0.0
379,0.0
393,0.0
394,0.0
396,0.0
397,843.6866028007214
448,0.034683961875
449,55.0
450,45.60533877002711
587,1355.7268138140155
588,45.649093466995449
589,54.99999999999999
590,0.034683961875
120,5089416.529730456
2,3, 1, 3, 0,17, 0.00,60.00,Tuesday
7,1.0
314,20.072359750322574
315,0.0
379,0.0
393,0.0
394,0.0
396,0.0
397,832.9070654294316
448,0.03413714265625
449,55.0
450,45.58208755371027
587,1333.9103940759937
588,45.65219475254571
589,54.99999999999999
590,0.03413714265625
120,5032477.418673578
2,3, 1, 3, 0,18, 0.00,60.00,Tuesday
7,1.0
314,20.191438879476338
315,0.0
379,0.0
393,0.0
394,0.0
396,0.0
397,747.5454907217346
448,0.029996940000000004
449,55.0
450,45.38522064049111
587,1176.280073207717
588,45.619097130189967
589,55.0
590,0.029996940000000004
120,4594608.263547781
2,3, 1, 3, 0,19, 0.00,60.00,Tuesday
7,1.0
314,20.748335760038324
315,0.0
379,0.0
393,0.0
394,0.0
396,0.0
397,378.7710652917431
448,0.014998470000000002
449,54.99999999999999
450,50.22396761867731
587,590.4132874991474
588,45.58178802193115
589,50.29037693903147
590,0.014998470000000002
120,2478287.8349969305
2,3, 1, 3, 0,20, 0.00,60.00,Tuesday
7,1.0
314,20.47806284320656
315,0.0
379,0.0
393,0.0
394,0.0
396,0.0
397,365.13052902809417
448,0.014998470000000002
449,55.0
450,50.16934116337116
587,591.684980444763
588,45.56615133065785
589,50.284886674036389
590,0.014998470000000002
120,2418065.929601147
2,3, 1, 3, 0,21, 0.00,60.00,Tuesday
7,1.0
314,19.64192526077172
315,0.0
379,0.0
393,0.0
394,0.0
396,0.0
397,0.0
448,0.0
449,55.0
450,55.0
587,0.0
588,45.549478305263509
589,45.549478305263509
590,0.0
120,259200.0
2,3, 1, 3, 0,22, 0.00,60.00,Tuesday
7,1.0
314,19.370347326371716
315,0.0
379,0.0
393,0.0
394,0.0
396,0.0
397,0.0
448,0.0
449,55.0
450,55.0
587,0.0
588,45.549478305263509
589,45.549478305263509
590,0.0
120,324000.0
2,3, 1, 3, 0,23, 0.00,60.00,Tuesday
7,1.4
314,18.89823411958502
315,0.0
379,0.0
393,0.0
394,0.0
396,0.0
397,0.0
448,0.0
449,55.0
450,55.0
587,0.0
588,45.549478305263509
589,45.549478305263509
590,0.0
120,216000.0
2,3, 1, 3, 0,24, 0.00,60.00,Tuesday
7,1.7
314,18.61096177163392
315,0.0
379,0.0
393,0.0
394,0.0
396,0.0
397,0.0
448,0.0
449,55.0
450,55.0
587,0.0
588,45.549478305263509
589,45.549478305263509
590,0.0
120,57600.0
2,4, 1, 4, 0, 1, 0.00,60.00,Wednesday
7,2.1
314,18.186187471746466
315,0.0
379,0.0
393,0.0
394,0.0
396,0.0
397,0.0
448,0.0
449,55.0
450,55.0
587,0.0
588,45.549478305263509
589,45.549478305263509
590,0.0
120,43200.0
2,4, 1, 4, 0, 2, 0.00,60.00,Wednesday
7,1.4
314,17.974642974896157
315,0.0
379,0.0
393,0.0
394,0.0
396,0.0
397,0.0
448,0.0
449,55.0
450,55.0
587,0.0
588,45.549478305263509
589,45.549478305263509
590,0.0
120,43200.0
2,4, 1, 4, 0, 3, 0.00,60.00,Wednesday
7,0.8
314,17.855852565483507
315,0.0
379,0.0
393,0.0
394,0.0
396,0.0
397,0.0
448,0.0
449,55.0
450,55.0
587,0.0
588,45.549478305263509
589,45.549478305263509
590,0.0
120,43200.0
2,4, 1, 4, 0, 4, 0.00,60.00,Wednesday
7,0.1
314,17.747347805170916
315,0.0
379,0.0
393,0.0
394,0.0
396,0.0
397,0.0
448,0.0
449,55.0
450,55.0
587,0.0
588,45.549478305263509
589,45.549478305263509
590,0.0
120,43200.0
2,4, 1, 4, 0, 5, 0.00,60.00,Wednesday
7,-0.3
314,17.633929313815196
315,0.0
379,0.0
393,0.0
394,0.0
396,0.0
397,0.0
448,0.0
449,55.0
450,55.0
587,0.0
588,45.549478305263509
589,45.549478305263509
590,0.0
120,43200.0
2,4, 1, 4, 0, 6, 0.00,60.00,Wednesday
7,-0.7
314,21.52748450534779
315,0.0
379,0.0
393,0.0
394,0.0
396,0.0
397,981.6783035937647
448,0.03645833444196429
449,55.00000000000001
450,45.900611066683079
587,1426.3107513192106
588,45.6507001186646
589,55.0
590,0.03645833444196429
120,5177918.704749158
2,4, 1, 4, 0, 7, 0.00,60.00,Wednesday
7,-1.1
314,21.840149311478755
315,0.0
379,0.0
393,0.0
394,0.0
396,0.0
397,1017.2309752889853
448,0.046635867656249999
449,55.0
450,46.48521183489804
587,1769.8261896584913
588,45.92777281474699
589,55.0
590,0.046635867656249999
120,6572974.282770569
2,4, 1, 4, 0, 8, 0.00,60.00,Wednesday
7,-1.4
314,22.111343015519969
315,0.0
379,0.0
393,0.0
394,0.0
396,0.0
397,988.8088722625203
448,0.043589303437500007
449,55.0
450,46.42729340743426
587,1611.169052440162
588,46.15778963998626
589,54.999999999999989
590,0.043589303437500007
120,6153008.588784583
2,4, 1, 4, 0, 9, 0.00,60.00,Wednesday
7,-1.8
314,19.753911682314745
315,0.0
379,0.0
393,0.0
394,0.0
396,0.0
397,819.0487214353993
448,0.04285277142857142
449,54.999999999999989
450,47.474754738112448
587,1567.8051210732153
588,46.246473115473147
589,53.74825032568789
590,0.04285277142857142
120,5946498.435863575
2,4, 1, 4, 0,10, 0.00,60.00,Wednesday
7,-2.1
314,20.00536444315177
315,0.0
379,0.0
393,0.0
394,0.0
396,0.0
397,986.0508056663355
448,0.0414020265625
449,54.99999999999999
450,45.81213132309501
587,1529.3898933453588
588,46.16519679572728
589,55.0
590,0.0414020265625
120,5736203.616043292
2,4, 1, 4, 0,11, 0.00,60.00,Wednesday
7,-2.4
314,20.083870271338659
315,0.0
379,0.0
393,0.0
394,0.0
396,0.0
397,892.3450057283047
448,0.036636887656250009
449,54.99999999999999
450,45.64129077014265
587,1372.044872775619
588,46.04115905306034
589,54.99999999999999
590,0.036636887656250009
120,5133761.5419922289
2,4, 1, 4, 0,12, 0.00,60.00,Wednesday
7,-2.6
314,20.07992333287454
315,0.0
379,0.0
393,0.0
394,0.0
396,0.0
397,900.8815050724983
448,0.03733994093750001
449,54.99999999999999
450,45.69814473791058
587,1415.3571531967689
588,45.932307937443137
589,54.99999999999999
590,0.03733994093750001
120,5332885.751508368
2,4, 1, 4, 0,13, 0.00,60.00,Wednesday
7,-2.9
314,20.076621560698525
315,0.0
379,0.0
393,0.0
394,0.0
396,0.0
397,909.115076716071
448,0.03796487718750001
449,54.99999999999999
450,45.751684808689429
587,1447.1100872728357
588,45.88146701238842
589,55.0
590,0.03796487718750001
120,5504796.314182209
2,4, 1, 4, 0,14, 0.00,60.00,Wednesday
7,-3.5
314,20.083502732187037
315,0.0
379,0.0
393,0.0
394,0.0
396,0.0
397,984.703040395839
448,0.042183196875
449,54.99999999999999
450,45.98134328821104
587,1603.512550515777
588,45.90635997779392
589,55.0
590,0.042183196875
120,6024645.181856797
2,4, 1, 4, 0,15, 0.00,60.00,Wednesday
7,-4.2
314,20.090148638516305
315,0.0
379,0.0
393,0.0
394,0.0
396,0.0
397,1034.0155236695355
448,0.04507352703125
449,54.99999999999999
450,46.13899084858627
587,1695.8817508595544
588,45.99928568009716
589,55.00000000000001
590,0.04507352703125
120,6349974.303094395
2,4, 1, 4, 0,16, 0.00,60.00,Wednesday
7,-4.8
314,20.090990844784586
315,0.0
379,0.0
393,0.0
394,0.0
396,0.0
397,1078.9916338932587
448,0.047807623125
449,55.0
450,46.282855458305409
587,1774.4227649903744
588,46.12107532292785
589,55.00000000000001
590,0.047807623125
120,6596721.953965348
2,4, 1, 4, 0,17, 0.00,60.00,Wednesday
7,-5.1
314,20.093870179017779
315,0.0
379,0.0
393,0.0
394,0.0
396,0.0
397,1085.79471790792
448,0.04827632531249999
449,55.0
450,46.309548507290369
587,1770.4602438214004
588,46.2269582307688
589,55.0
590,0.04827632531249999
120,6604056.877757042
2,4, 1, 4, 0,18, 0.00,60.00,Wednesday
7,-5.5
314,20.08037299907869
315,0.0
379,0.0
393,0.0
394,0.0
396,0.0
397,977.7951119500387
448,0.0420269628125
449,55.0
450,46.00043703472718
587,1542.012651026236
588,46.222754583630017
589,55.0
590,0.0420269628125
120,5911245.54369445
2,4, 1, 4, 0,19, 0.00,60.00,Wednesday
7,-5.8
314,20.43327387565762
315,0.0
379,0.0
393,0.0
394,0.0
396,0.0
397,449.26002425470247
448,0.017998164000000005
449,55.0
450,49.22950967053509
587,668.6217882011543
588,46.11290527256789
589,51.44507744342852
590,0.017998164000000005
120,2759838.4375241559
2,4, 1, 4, 0,20, 0.00,60.00,Wednesday
7,-5.9
314,20.731264482341666
315,0.0
379,0.0
393,0.0
394,0.0
396,0.0
397,554.840802451753
448,0.022497705000000004
449,55.0
450,47.818986587487717
587,848.7811860502632
588,45.98050532985029
589,52.749470160313709
590,0.022497705000000004
120,3343612.269780947
2,4, 1, 4, 0,21, 0.00,60.00,Wednesday
7,-6.1
314,19.29397591951871
315,0.0
379,0.0
393,0.0
394,0.0
396,0.0
397,0.0
448,0.0
449,55.0
450,55.0
587,0.0
588,45.912047094056337
589,45.912047094056337
590,0.0
120,259200.0
2,4, 1, 4, 0,22, 0.00,60.00,Wednesday
7,-6.2
314,18.900438859838105
315,0.0
379,0.0
393,0.0
394,0.0
396,0.0
397,0.0
448,0.0
449,55.0
450,55.0
587,0.0
588,45.912047094056337
589,45.912047094056337
590,0.0
120,324000.0
2,4, 1, 4, 0,23, 0.00,60.00,Wednesday
7,-6.2
314,18.45615586792148
315,0.0
379,0.0
393,0.0
394,0.0
396,0.0
397,0.0
448,0.0
449,55.0
450,55.0
587,0.0
588,45.912047094056337
589,45.912047094056337
590,0.0
120,216000.0
2,4, 1, 4, 0,24, 0.00,60.00,Wednesday
7,-6.3
314,18.004089815690685
315,0.0
379,0.0
393,0.0
394,0.0
396,0.0
397,0.0
448,0.0
449,55.0
450,55.0
587,0.0
588,45.912047094056337
589,45.912047094056337
590,0.0
120,57600.0
2,5, 1, 5, 0, 1, 0.00,60.00,Thursday
7,-6.3
314,17.524038720038307
315,0.0
379,0.0
393,0.0
394,0.0
396,0.0
397,0.0
448,0.0
449,55.0
450,55.0
587,0.0
588,45.912047094056337
589,45.912047094056337
590,0.0
120,43200.0
2,5, 1, 5, 0, 2, 0.00,60.00,Thursday
7,-6.4
314,17.3693504430423
315,0.0
379,0.0
393,0.0
394,0.0
396,0.0
397,0.0
448,0.0
449,55.0
450,55.0
587,0.0
588,45.912047094056337
589,45.912047094056337
590,0.0
120,43200.0
2,5, 1, 5, 0, 3, 0.00,60.00,Thursday
7,-6.5
314,17.258030013028358
315,0.0
379,0.0
393,0.0
394,0.0
396,0.0
397,0.0
448,0.0
449,55.0
450,55.0
587,0.0
588,45.912047094056337
589,45.912047094056337
590,0.0
120,43200.0
2,5, 1, 5, 0, 4, 0.00,60.00,Thursday
7,-6.6
314,17.133674220526364
315,0.0
379,0.0
393,0.0
394,0.0
396,0.0
397,0.0
448,0.0
449,55.0
450,55.0
587,0.0
588,45.912047094056337
589,45.912047094056337
590,0.0
120,43200.0
2,5, 1, 5, 0, 5, 0.00,60.00,Thursday
7,-6.4
314,17.02317238877518
315,0.0
379,0.0
393,0.0
394,0.0
396,0.0
397,0.0
448,0.0
449,55.0
450,55.0
587,0.0
588,45.912047094056337
589,45.912047094056337
590,0.0
120,43200.0
2,5, 1, 5, 0, 6, 0.00,60.00,Thursday
7,-6.3
314,21.268668559368729
315,0.0
379,0.0
393,0.0
394,0.0
396,0.0
397,1174.077971652641
448,0.04522375209134616
449,54.99999999999998
450,46.25643775344491
587,1704.1534955699256
588,45.991114659927209
589,54.99999999999998
590,0.04522375209134616
120,6178152.584051733
2,5, 1, 5, 0, 7, 0.00,60.00,Thursday
7,-6.1
314,21.343034122092698
315,0.0
379,0.0
393,0.0
394,0.0
396,0.0
397,1048.4709367755468
448,0.049994899999999998
449,55.0
450,46.57537239539299
587,1833.6736045652851
588,46.226061590744958
589,55.0
590,0.049994899999999998
120,6802824.976435025
2,5, 1, 5, 0, 8, 0.00,60.00,Thursday
7,-5.8
314,21.89577091015851
315,0.0
379,0.0
393,0.0
394,0.0
396,0.0
397,1080.4486570095405
448,0.04835444234375
449,55.0
450,46.55612740735235
587,1735.9341919493477
588,46.41303309653223
589,55.0
590,0.04835444234375
120,6602163.091017652
2,5, 1, 5, 0, 9, 0.00,60.00,Thursday
7,-5.6
314,19.332517230806798
315,0.0
379,0.0
393,0.0
394,0.0
396,0.0
397,900.3157456206642
448,0.04666190666666667
449,54.99999999999999
450,46.07163652772072
587,1678.3620267970853
588,46.39881621529781
589,54.99999999999999
590,0.04666190666666667
120,6344503.296469507
2,5, 1, 5, 0,10, 0.00,60.00,Thursday
7,-5.3
314,19.415813297007003
315,0.0
379,0.0
393,0.0
394,0.0
396,0.0
397,1161.5322530820906
448,0.0499949
449,55.0
450,46.026421425364549
587,1824.1617322403365
588,46.27159413483017
589,54.99999999999999
590,0.0499949
120,6797382.236065212
2,5, 1, 5, 0,11, 0.00,60.00,Thursday
7,-4.9
314,19.94087728987397
315,0.0
379,0.0
393,0.0
394,0.0
396,0.0
397,1105.7485214255648
448,0.047495155
449,55.0
450,46.13915932010488
587,1742.359211790132
588,46.22408354173303
589,55.0
590,0.047495155
120,6466893.162444475
2,5, 1, 5, 0,12, 0.00,60.00,Thursday
7,-4.4
314,20.098119359491837
315,0.0
379,0.0
393,0.0
394,0.0
396,0.0
397,1052.2435877456257
448,0.04562034625
449,55.0
450,46.12909970450829
587,1676.5508313401392
588,46.20862607626587
589,55.0
590,0.04562034625
120,6273182.992824501
2,5, 1, 5, 0,13, 0.00,60.00,Thursday
7,-4.0
314,20.090742771043943
315,0.0
379,0.0
393,0.0
394,0.0
396,0.0
397,1025.186808577941
448,0.044214239687500007
449,55.0
450,46.077019290446219
587,1628.1308235880972
588,46.191010195939849
589,55.0
590,0.044214239687500007
120,6156470.96491715
2,5, 1, 5, 0,14, 0.00,60.00,Thursday
7,-4.4
314,20.099393760124938
315,0.0
379,0.0
393,0.0
394,0.0
396,0.0
397,1093.295163925487