Program Version,EnergyPlus, Version 8.9.0-40101eaafd, YMD=2019.01.24 12:04
1,5,Environment Title[],Latitude[deg],Longitude[deg],Time Zone[],Elevation[m]
2,8,Day of Simulation[],Month[],Day of Month[],DST Indicator[1=yes 0=no],Hour[],StartMinute[],EndMinute[],DayType
3,5,Cumulative Day of Simulation[],Month[],Day of Month[],DST Indicator[1=yes 0=no],DayType  ! When Daily Report Variables Requested
4,2,Cumulative Days of Simulation[],Month[]  ! When Monthly Report Variables Requested
5,1,Cumulative Days of Simulation[] ! When Run Period Report Variables Requested
6,1,Calendar Year of Simulation[] ! When Annual Report Variables Requested
7,1,Environment,Site Outdoor Air Drybulb Temperature [C] !Hourly
314,1,ZONE ONE,Zone Air Temperature [C] !Hourly
315,1,ERV_1_HX,Heat Exchanger Total Heating Rate [W] !Hourly
379,1,ERV_1_FANSUPPLY,Fan Electric Power [W] !Hourly
393,1,ERV_1_FANSUPPLY,Fan Air Mass Flow Rate [kg/s] !Hourly
394,1,ERV_1_FANEXHAUST,Fan Electric Power [W] !Hourly
396,1,ERV_1_FANEXHAUST,Fan Air Mass Flow Rate [kg/s] !Hourly
397,1,RADIATOR,Baseboard Total Heating Rate [W] !Hourly
448,1,RADIATOR,Baseboard Hot Water Mass Flow Rate [kg/s] !Hourly
449,1,RADIATOR,Baseboard Water Inlet Temperature [C] !Hourly
450,1,RADIATOR,Baseboard Water Outlet Temperature [C] !Hourly
587,1,DISTRICT HEATING 1,District Heating Rate [W] !Hourly
588,1,DISTRICT HEATING 1,District Heating Inlet Temperature [C] !Hourly
589,1,DISTRICT HEATING 1,District Heating Outlet Temperature [C] !Hourly
590,1,DISTRICT HEATING 1,District Heating Mass Flow Rate [kg/s] !Hourly
120,1,DistrictHeating:Facility [J] !Hourly
End of Data Dictionary
1,ANNUAL SIM 1,  59.65,  17.95,   1.00,  61.00
2,1, 1, 1, 0, 1, 0.00,60.00,Sunday
7,4.0
314,18.166014435752378
315,0.0
379,0.0
393,0.0
394,0.0
396,0.0
397,0.0
448,0.0
449,59.99936038375889
450,59.99936038375889
587,0.0
588,49.79344392301866
589,49.79344392301866
590,0.0
120,43200.0
2,1, 1, 1, 0, 2, 0.00,60.00,Sunday
7,5.3
314,18.078391099165278
315,0.0
379,0.0
393,0.0
394,0.0
396,0.0
397,0.0
448,0.0
449,59.99936038375889
450,59.99936038375889
587,0.0
588,49.79344392301866
589,49.79344392301866
590,0.0
120,43200.0
2,1, 1, 1, 0, 3, 0.00,60.00,Sunday
7,6.2
314,18.063294172478906
315,0.0
379,0.0
393,0.0
394,0.0
396,0.0
397,0.0
448,0.0
449,59.99936038375889
450,59.99936038375889
587,0.0
588,49.79344392301866
589,49.79344392301866
590,0.0
120,43200.0
2,1, 1, 1, 0, 4, 0.00,60.00,Sunday
7,6.8
314,18.0367394065506
315,0.0
379,0.0
393,0.0
394,0.0
396,0.0
397,0.0
448,0.0
449,59.99936038375889
450,59.99936038375889
587,0.0
588,49.79344392301866
589,49.79344392301866
590,0.0
120,43200.0
2,1, 1, 1, 0, 5, 0.00,60.00,Sunday
7,7.2
314,17.995928326558013
315,0.0
379,0.0
393,0.0
394,0.0
396,0.0
397,0.0
448,0.0
449,59.99936038375889
450,59.99936038375889
587,0.0
588,49.79344392301866
589,49.79344392301866
590,0.0
120,43200.0
2,1, 1, 1, 0, 6, 0.00,60.00,Sunday
7,7.5
314,21.91444302720087
315,0.0
379,0.0
393,0.0
394,0.0
396,0.0
397,882.9398414488436
448,0.03090644543526785
449,59.93982462397543
450,51.54147639838951
587,1281.0741193554838
588,49.884062930666697
589,58.42513306186516
590,0.03090644543526785
120,4655066.829679743
2,1, 1, 1, 0, 7, 0.00,60.00,Sunday
7,7.5
314,22.127891325657634
315,0.0
379,0.0
393,0.0
394,0.0
396,0.0
397,789.1041001512305
448,0.029996940000000004
449,59.95125049094776
450,50.14250831030462
587,1257.4374063364316
588,49.9739516462735
589,60.00000000000001
590,0.029996940000000004
120,4591574.662811154
2,1, 1, 1, 0, 8, 0.00,60.00,Sunday
7,6.7
314,21.872694420543824
315,0.0
379,0.0
393,0.0
394,0.0
396,0.0
397,791.944449991869
448,0.029996940000000004
449,59.96598862162667
450,50.01296245910394
587,1251.1754361367125
588,50.02391608081157
589,59.99999999999999
590,0.029996940000000004
120,4684231.570092165
2,1, 1, 1, 0, 9, 0.00,60.00,Sunday
7,6.0
314,21.66239302068464
315,0.0
379,0.0
393,0.0
394,0.0
396,0.0
397,795.7946847334641
448,0.029996940000000004
449,59.97627106649188
450,49.95745729850897
587,1250.2286078002203
588,50.031472699598669
589,60.0
590,0.029996940000000004
120,4767222.988080793
2,1, 1, 1, 0,10, 0.00,60.00,Sunday
7,5.2
314,21.711355127648763
315,0.0
379,0.0
393,0.0
394,0.0
396,0.0
397,798.8882278239454
448,0.029996940000000004
449,59.983444884848477
450,49.91102277478709
587,1251.4885097437384
588,50.02141744395475
589,60.0
590,0.029996940000000004
120,4757358.635077458
2,1, 1, 1, 0,11, 0.00,60.00,Sunday
7,5.2
314,20.761856684485033
315,0.0
379,0.0
393,0.0
394,0.0
396,0.0
397,764.5781448214142
448,0.029996940000000004
449,59.988449888083398
450,49.81030326542039
587,1254.2920873031826
588,49.999044962547838
589,60.0
590,0.029996940000000004
120,4745851.514291458
2,1, 1, 1, 0,12, 0.00,60.00,Sunday
7,5.2
314,20.80456051080242
315,0.0
379,0.0
393,0.0
394,0.0
396,0.0
397,807.5989081783177
448,0.029996940000000004
449,59.99194176035232
450,49.671942637958668
587,1262.671409205744
588,49.93219875241516
589,60.00000000000001
590,0.029996940000000004
120,4797617.073140679
2,1, 1, 1, 0,13, 0.00,60.00,Sunday
7,5.2
314,18.57613850937366
315,0.0
379,0.0
393,0.0
394,0.0
396,0.0
397,0.0
448,0.0
449,59.99330540190513
450,59.99330540190513
587,0.0
588,49.89921785157421
589,49.89921785157421
590,0.0
120,302400.0
2,1, 1, 1, 0,14, 0.00,60.00,Sunday
7,4.6
314,18.644150265709884
315,0.0
379,0.0
393,0.0
394,0.0
396,0.0
397,337.79478288814809
448,0.011998776000000003
449,59.99367530260738
450,55.66144549781598
587,509.01274595501908
588,49.862618995639838
589,53.92120337186847
590,0.011998776000000003
120,2098845.885438069
2,1, 1, 1, 0,15, 0.00,60.00,Sunday
7,4.1
314,19.609835017014328
315,0.0
379,0.0
393,0.0
394,0.0
396,0.0
397,554.1392337192215
448,0.019997960000000003
449,59.9949473893478
450,52.9542249065844
587,855.3304008436967
588,49.76525796304091
589,56.58521382257646
590,0.019997960000000003
120,3338389.4430373085
2,1, 1, 1, 0,16, 0.00,60.00,Sunday
7,3.5
314,20.405539372468114
315,0.0
379,0.0
393,0.0
394,0.0
396,0.0
397,845.1071497731007
448,0.030465642187500007
449,59.99618814506222
450,49.68534253704255
587,1307.002199101553
588,49.738945743652859
589,60.0
590,0.030465642187500007
120,4928407.916765591
2,1, 1, 1, 0,17, 0.00,60.00,Sunday
7,3.2
314,21.64950964549145
315,0.0
379,0.0
393,0.0
394,0.0
396,0.0
397,832.9620618341373
448,0.030348466640625003
449,59.99735284295966
450,49.98924764390567
587,1295.9496654778873
588,49.78684838774121
589,60.0
590,0.030348466640625003
120,4895818.795720394
2,1, 1, 1, 0,18, 0.00,60.00,Sunday
7,2.9
314,19.85359449906806
315,0.0
379,0.0
393,0.0
394,0.0
396,0.0
397,0.0
448,0.0
449,59.99780219926005
450,59.99780219926005
587,0.0
588,49.845033791431209
589,49.845033791431209
590,0.0
120,324000.0
2,1, 1, 1, 0,19, 0.00,60.00,Sunday
7,2.6
314,19.450878444935378
315,0.0
379,0.0
393,0.0
394,0.0
396,0.0
397,0.0
448,0.0
449,59.997802199260068
450,59.997802199260068
587,0.0
588,49.845033791431209
589,49.845033791431209
590,0.0
120,302400.0
2,1, 1, 1, 0,20, 0.00,60.00,Sunday
7,2.5
314,19.190588071722538
315,0.0
379,0.0
393,0.0
394,0.0
396,0.0
397,0.0
448,0.0
449,59.99780219926006
450,59.99780219926006
587,0.0
588,49.845033791431209
589,49.845033791431209
590,0.0
120,252000.0
2,1, 1, 1, 0,21, 0.00,60.00,Sunday
7,2.4
314,18.970960234768979
315,0.0
379,0.0
393,0.0
394,0.0
396,0.0
397,0.0
448,0.0
449,59.99780219926006
450,59.99780219926006
587,0.0
588,49.845033791431209
589,49.845033791431209
590,0.0
120,216000.0
2,1, 1, 1, 0,22, 0.00,60.00,Sunday
7,2.3
314,18.886365107510835
315,0.0
379,0.0
393,0.0
394,0.0
396,0.0
397,0.0
448,0.0
449,59.99780219926006
450,59.99780219926006
587,0.0
588,49.845033791431209
589,49.845033791431209
590,0.0
120,244800.0
2,1, 1, 1, 0,23, 0.00,60.00,Sunday
7,2.3
314,18.714151066934048
315,0.0
379,0.0
393,0.0
394,0.0
396,0.0
397,0.0
448,0.0
449,59.99780219926006
450,59.99780219926006
587,0.0
588,49.845033791431209
589,49.845033791431209
590,0.0
120,187200.0
2,1, 1, 1, 0,24, 0.00,60.00,Sunday
7,2.2
314,18.480455385224198
315,0.0
379,0.0
393,0.0
394,0.0
396,0.0
397,0.0
448,0.0
449,59.99780219926006
450,59.99780219926006
587,0.0
588,49.845033791431209
589,49.845033791431209
590,0.0
120,86400.0
2,2, 1, 2, 0, 1, 0.00,60.00,Monday
7,2.2
314,17.951523444515219
315,0.0
379,0.0
393,0.0
394,0.0
396,0.0
397,0.0
448,0.0
449,59.99780219926006
450,59.99780219926006
587,0.0
588,49.845033791431209
589,49.845033791431209
590,0.0
120,43200.0
2,2, 1, 2, 0, 2, 0.00,60.00,Monday
7,2.2
314,17.774838232478698
315,0.0
379,0.0
393,0.0
394,0.0
396,0.0
397,0.0
448,0.0
449,59.99780219926006
450,59.99780219926006
587,0.0
588,49.845033791431209
589,49.845033791431209
590,0.0
120,43200.0
2,2, 1, 2, 0, 3, 0.00,60.00,Monday
7,2.1
314,17.678719428868754
315,0.0
379,0.0
393,0.0
394,0.0
396,0.0
397,0.0
448,0.0
449,59.99780219926006
450,59.99780219926006
587,0.0
588,49.845033791431209
589,49.845033791431209
590,0.0
120,43200.0
2,2, 1, 2, 0, 4, 0.00,60.00,Monday
7,2.1
314,17.608327073941266
315,0.0
379,0.0
393,0.0
394,0.0
396,0.0
397,0.0
448,0.0
449,59.99780219926006
450,59.99780219926006
587,0.0
588,49.845033791431209
589,49.845033791431209
590,0.0
120,43200.0
2,2, 1, 2, 0, 5, 0.00,60.00,Monday
7,2.1
314,17.523419087538274
315,0.0
379,0.0
393,0.0
394,0.0
396,0.0
397,0.0
448,0.0
449,59.99780219926006
450,59.99780219926006
587,0.0
588,49.845033791431209
589,49.845033791431209
590,0.0
120,43200.0
2,2, 1, 2, 0, 6, 0.00,60.00,Monday
7,2.0
314,21.673681181904056
315,0.0
379,0.0
393,0.0
394,0.0
396,0.0
397,1028.8080391683852
448,0.03532972933333334
449,59.933731493073299
450,50.10073291252616
587,1457.8909001233005
588,49.928074061705768
589,59.851447786554377
590,0.03532972933333334
120,5291607.240443882
2,2, 1, 2, 0, 7, 0.00,60.00,Monday
7,2.0
314,21.933130730601954
315,0.0
379,0.0
393,0.0
394,0.0
396,0.0
397,1044.477873594816
448,0.04366742046875001
449,59.88847343366183
450,50.54572527524756
587,1763.3986416309015
588,50.15688307799576
589,59.83064291748802
590,0.04366742046875001
120,6549835.109871246
2,2, 1, 2, 0, 8, 0.00,60.00,Monday
7,2.0
314,21.63669607666063
315,0.0
379,0.0
393,0.0
394,0.0
396,0.0
397,792.3718209963375
448,0.029996940000000004
449,59.90896516448318
450,49.94369337679663
587,1229.7973446563917
588,50.194531554608797
589,60.00000000000001
590,0.029996940000000004
120,4780070.44076301
2,2, 1, 2, 0, 9, 0.00,60.00,Monday
7,1.9
314,20.16590882136861
315,0.0
379,0.0
393,0.0
394,0.0
396,0.0
397,860.0224052532753
448,0.036074445031250009
449,59.93779811684646
450,49.904470142346358
587,1489.4075986819391
588,50.12697656127758
589,60.0
590,0.036074445031250009
120,5664267.355254981
2,2, 1, 2, 0,10, 0.00,60.00,Monday
7,1.9
314,20.087396656827904
315,0.0
379,0.0
393,0.0
394,0.0
396,0.0
397,925.6083961888236
448,0.0348401959375
449,59.959914568793589
450,49.77292130689168
587,1448.6661661060857
588,50.054988809589847
589,60.00000000000001
590,0.0348401959375
120,5445598.197981909
2,2, 1, 2, 0,11, 0.00,60.00,Monday
7,1.9
314,20.101180165900638
315,0.0
379,0.0
393,0.0
394,0.0
396,0.0
397,813.0339611559851
448,0.029996940000000004
449,59.97288248738468
450,49.59891614195658
587,1259.5637426549843
588,49.95698937256076
589,59.99999999999999
590,0.029996940000000004
120,4728829.4735579439
2,2, 1, 2, 0,12, 0.00,60.00,Monday
7,1.9
314,20.203987670896013
315,0.0
379,0.0
393,0.0
394,0.0
396,0.0
397,807.4924264313692
448,0.029996940000000004
449,59.981080753426358
450,49.65290172610647
587,1269.5728162282526
588,49.87714432139589
589,60.0
590,0.029996940000000004
120,4808062.13842171
2,2, 1, 2, 0,13, 0.00,60.00,Monday
7,1.9
314,20.261872082984483
315,0.0
379,0.0
393,0.0
394,0.0
396,0.0
397,803.7776552308743
448,0.029996940000000004
449,59.98680048955847
450,49.70991226186088
587,1274.4492304430469
588,49.838243642689729
589,60.0
590,0.029996940000000004
120,4883217.229594969
2,2, 1, 2, 0,14, 0.00,60.00,Monday
7,1.6
314,20.087237562447247
315,0.0
379,0.0
393,0.0
394,0.0
396,0.0
397,801.3623994270827
448,0.029996940000000004
449,59.990791014049218
450,49.74137025053254
587,1276.2040103315176
588,49.824245180201867
589,60.0
590,0.029996940000000004
120,4846334.437193464
2,2, 1, 2, 0,15, 0.00,60.00,Monday
7,1.3
314,20.07641566458827
315,0.0
379,0.0
393,0.0
394,0.0
396,0.0
397,855.1296208653922
448,0.0323404509375
449,59.99365858748562
450,49.8115351481976
587,1375.0212451473287
588,49.83080243688046
589,60.0
590,0.0323404509375
120,5194876.482530383
2,2, 1, 2, 0,16, 0.00,60.00,Monday
7,1.0
314,20.078806891861008
315,0.0
379,0.0
393,0.0
394,0.0
396,0.0
397,877.5461595532121
448,0.033355972343750008
449,59.995724274762618
450,49.862019042852327
587,1414.8688728930324
588,49.8546872773825
589,60.0
590,0.033355972343750008
120,5302327.942414917
2,2, 1, 2, 0,17, 0.00,60.00,Monday
7,0.9
314,20.07734020824741
315,0.0
379,0.0
393,0.0
394,0.0
396,0.0
397,875.2532741302587
448,0.03327785531250001
449,59.99713322359686
450,49.862863892118557
587,1408.2029106112232
588,49.87879412445832
589,59.99999999999999
590,0.03327785531250001
120,5299930.478200403
2,2, 1, 2, 0,18, 0.00,60.00,Monday
7,0.7
314,20.18676623077543
315,0.0
379,0.0
393,0.0
394,0.0
396,0.0
397,800.1638070592206
448,0.029996940000000004
449,59.998041131048449
450,49.717038365602039
587,1270.3319006118481
588,49.871088877785307
589,60.0
590,0.029996940000000004
120,4933194.842202653
2,2, 1, 2, 0,19, 0.00,60.00,Monday
7,0.6
314,20.679824169383254
315,0.0
379,0.0
393,0.0
394,0.0
396,0.0
397,405.3269947988709
448,0.014998470000000002
449,59.99853279193029
450,54.87693361423744
587,636.330739767015
588,49.852032365148989
589,54.92577981184074
590,0.014998470000000002
120,2643590.663161254
2,2, 1, 2, 0,20, 0.00,60.00,Monday
7,0.6
314,20.800475505888256
315,0.0
379,0.0
393,0.0
394,0.0
396,0.0
397,405.6510032314552
448,0.014998470000000002
449,59.998783581516317
450,54.8956053450565
587,636.3630328623278
588,49.852117715996147
589,54.9261227748957
590,0.014998470000000002
120,2578906.91830438
2,2, 1, 2, 0,21, 0.00,60.00,Monday
7,0.6
314,19.26664015374777
315,0.0
379,0.0
393,0.0
394,0.0
396,0.0
397,0.0
448,0.0
449,59.998864613568617
450,59.998864613568617
587,0.0
588,49.851388222608289
589,49.851388222608289
590,0.0
120,259200.0
2,2, 1, 2, 0,22, 0.00,60.00,Monday
7,0.6
314,19.04063319824563
315,0.0
379,0.0
393,0.0
394,0.0
396,0.0
397,0.0
448,0.0
449,59.99886461356861
450,59.99886461356861
587,0.0
588,49.85138822260828
589,49.85138822260828
590,0.0
120,324000.0
2,2, 1, 2, 0,23, 0.00,60.00,Monday
7,0.8
314,18.60878405533415
315,0.0
379,0.0
393,0.0
394,0.0
396,0.0
397,0.0
448,0.0
449,59.99886461356861
450,59.99886461356861
587,0.0
588,49.85138822260828
589,49.85138822260828
590,0.0
120,216000.0
2,2, 1, 2, 0,24, 0.00,60.00,Monday
7,0.9
314,18.338505347374107
315,0.0
379,0.0
393,0.0
394,0.0
396,0.0
397,0.0
448,0.0
449,59.99886461356861
450,59.99886461356861
587,0.0
588,49.85138822260828
589,49.85138822260828
590,0.0
120,57600.0
2,3, 1, 3, 0, 1, 0.00,60.00,Tuesday
7,1.1
314,17.829785164717749
315,0.0
379,0.0
393,0.0
394,0.0
396,0.0
397,0.0
448,0.0
449,59.99886461356861
450,59.99886461356861
587,0.0
588,49.85138822260828
589,49.85138822260828
590,0.0
120,43200.0
2,3, 1, 3, 0, 2, 0.00,60.00,Tuesday
7,0.9
314,17.680207750134238
315,0.0
379,0.0
393,0.0
394,0.0
396,0.0
397,0.0
448,0.0
449,59.99886461356861
450,59.99886461356861
587,0.0
588,49.85138822260828
589,49.85138822260828
590,0.0
120,43200.0
2,3, 1, 3, 0, 3, 0.00,60.00,Tuesday
7,0.6
314,17.603034707171159
315,0.0
379,0.0
393,0.0
394,0.0
396,0.0
397,0.0
448,0.0
449,59.99886461356861
450,59.99886461356861
587,0.0
588,49.85138822260828
589,49.85138822260828
590,0.0
120,43200.0
2,3, 1, 3, 0, 4, 0.00,60.00,Tuesday
7,0.4
314,17.483947634186973
315,0.0
379,0.0
393,0.0
394,0.0
396,0.0
397,0.0
448,0.0
449,59.99886461356861
450,59.99886461356861
587,0.0
588,49.85138822260828
589,49.85138822260828
590,0.0
120,43200.0
2,3, 1, 3, 0, 5, 0.00,60.00,Tuesday
7,0.6
314,17.399185172108188
315,0.0
379,0.0
393,0.0
394,0.0
396,0.0
397,0.0
448,0.0
449,59.99886461356861
450,59.99886461356861
587,0.0
588,49.85138822260828
589,49.85138822260828
590,0.0
120,43200.0
2,3, 1, 3, 0, 6, 0.00,60.00,Tuesday
7,0.9
314,21.526133781772886
315,0.0
379,0.0
393,0.0
394,0.0
396,0.0
397,1038.9994291459257
448,0.035465132187500008
449,59.93506612069979
450,50.07256199106102
587,1463.7860425429571
588,49.92747033438484
589,59.85247186160439
590,0.035465132187500008
120,5312829.753154644
2,3, 1, 3, 0, 7, 0.00,60.00,Tuesday
7,1.1
314,21.90273126078626
315,0.0
379,0.0
393,0.0
394,0.0
396,0.0
397,1096.944117682714
448,0.04559430723958333
449,59.89998651781849
450,50.63695448315687
587,1852.7427957812924
588,50.14382278700511
589,59.871220322566248
590,0.04559430723958333
120,6871474.064812653
2,3, 1, 3, 0, 8, 0.00,60.00,Tuesday
7,0.9
314,22.1169880446652
315,0.0
379,0.0
393,0.0
394,0.0
396,0.0
397,1014.5150030804637
448,0.04046462218750001
449,59.93178557871456
450,50.47179018752982
587,1636.4444026923463
588,50.32765042703113
589,60.0
590,0.04046462218750001
120,6243999.849692447
2,3, 1, 3, 0, 9, 0.00,60.00,Tuesday
7,0.8
314,19.94562907868865
315,0.0
379,0.0
393,0.0
394,0.0
396,0.0
397,822.1141107693543
448,0.03849867690104167
449,59.95151389069677
450,51.91513998138498
587,1544.5419742854438
588,50.38508104034303
589,58.382436554520499
590,0.03849867690104167
120,5862751.107427598
2,3, 1, 3, 0,10, 0.00,60.00,Tuesday
7,0.6
314,20.09997807300567
315,0.0
379,0.0
393,0.0
394,0.0
396,0.0
397,1047.0615119713602
448,0.040620856250000007
449,59.969205960327069
450,50.08012794743786
587,1643.1690975900067
588,50.32525552285809
589,60.0
590,0.040620856250000007
120,6145808.751324024
2,3, 1, 3, 0,11, 0.00,60.00,Tuesday
7,1.1
314,20.082628112479
315,0.0
379,0.0
393,0.0
394,0.0
396,0.0
397,856.7260635439919
448,0.03202798281250001
449,59.98016100803553
450,49.724123930039819
587,1312.2167565596133
588,50.20087090969491
589,60.00000000000001
590,0.03202798281250001
120,4918380.323614608
2,3, 1, 3, 0,12, 0.00,60.00,Tuesday
7,1.6
314,20.074246707319064
315,0.0
379,0.0
393,0.0
394,0.0
396,0.0
397,807.1247549645495
448,0.029996940000000004
449,59.98633678031588
450,49.66402766196886
587,1246.2555203980191
588,50.06318171469465
589,60.0
590,0.029996940000000004
120,4724119.873432869
2,3, 1, 3, 0,13, 0.00,60.00,Tuesday
7,2.1
314,20.22967896412381
315,0.0
379,0.0
393,0.0
394,0.0
396,0.0
397,805.8134644599818
448,0.029996940000000004
449,59.99046749508848
450,49.67463045383617
587,1258.689023031841
588,49.9639672154495
589,60.0
590,0.029996940000000004
120,4826480.4829146279
2,3, 1, 3, 0,14, 0.00,60.00,Tuesday
7,1.7
314,20.12018020940706
315,0.0
379,0.0
393,0.0
394,0.0
396,0.0
397,804.0292577240635
448,0.029996940000000004
449,59.99334939699508
450,49.71691987719046
587,1266.3280058892644
588,49.90302910630764
589,59.99999999999999
590,0.029996940000000004
120,4810780.821201352
2,3, 1, 3, 0,15, 0.00,60.00,Tuesday
7,1.4
314,19.974148070584734
315,0.0
379,0.0
393,0.0
394,0.0
396,0.0
397,804.3491912848701
448,0.029996940000000004
449,59.99536003172937
450,49.689614834712639
587,1271.4525804834893
588,49.862148872187599
589,60.0
590,0.029996940000000004
120,4822029.2897405619
2,3, 1, 3, 0,16, 0.00,60.00,Tuesday
7,1.0
314,19.86653496131747
315,0.0
379,0.0
393,0.0
394,0.0
396,0.0
397,804.9938905828257
448,0.029996940000000004
449,59.996762803983859
450,49.6546669831307
587,1276.2161970826814
588,49.82414796237117
589,60.00000000000001
590,0.029996940000000004
120,4803178.3094976539
2,3, 1, 3, 0,17, 0.00,60.00,Tuesday
7,1.0
314,19.866474770353844
315,0.0
379,0.0
393,0.0
394,0.0
396,0.0
397,804.2100778115431
448,0.029996940000000004
449,59.99774148497669
450,49.63098110153442
587,1280.6379505577133
588,49.788874081529019
589,60.0
590,0.029996940000000004
120,4840696.622007768
2,3, 1, 3, 0,18, 0.00,60.00,Tuesday
7,1.0
314,20.311182386885997
315,0.0
379,0.0
393,0.0
394,0.0
396,0.0
397,809.4721549722758
448,0.029996940000000004
449,59.99842428753617
450,49.6678817453281
587,1283.7214325688292
588,49.764275991460539
589,60.0
590,0.029996940000000004
120,4981397.1572477859
2,3, 1, 3, 0,19, 0.00,60.00,Tuesday
7,1.0
314,19.274701485539823
315,0.0
379,0.0
393,0.0
394,0.0
396,0.0
397,0.0
448,0.0
449,59.998690934730209
450,59.998690934730209
587,0.0
588,49.762041038889197
589,49.762041038889197
590,0.0
120,352800.0
2,3, 1, 3, 0,20, 0.00,60.00,Tuesday
7,1.0
314,19.177768772556033
315,0.0
379,0.0
393,0.0
394,0.0
396,0.0
397,0.0
448,0.0
449,59.99869093473022
450,59.99869093473022
587,0.0
588,49.7620410388892
589,49.7620410388892
590,0.0
120,288000.0
2,3, 1, 3, 0,21, 0.00,60.00,Tuesday
7,1.0
314,18.98774491751667
315,0.0
379,0.0
393,0.0
394,0.0
396,0.0
397,0.0
448,0.0
449,59.998690934730209
450,59.998690934730209
587,0.0
588,49.7620410388892
589,49.7620410388892
590,0.0
120,259200.0
2,3, 1, 3, 0,22, 0.00,60.00,Tuesday
7,1.0
314,18.886242404445999
315,0.0
379,0.0
393,0.0
394,0.0
396,0.0
397,0.0
448,0.0
449,59.998690934730209
450,59.998690934730209
587,0.0
588,49.7620410388892
589,49.7620410388892
590,0.0
120,324000.0
2,3, 1, 3, 0,23, 0.00,60.00,Tuesday
7,1.4
314,18.696343111021368
315,0.0
379,0.0
393,0.0
394,0.0
396,0.0
397,0.0
448,0.0
449,59.998690934730209
450,59.998690934730209
587,0.0
588,49.7620410388892
589,49.7620410388892
590,0.0
120,216000.0
2,3, 1, 3, 0,24, 0.00,60.00,Tuesday
7,1.7
314,18.438185296173445
315,0.0
379,0.0
393,0.0
394,0.0
396,0.0
397,0.0
448,0.0
449,59.998690934730209
450,59.998690934730209
587,0.0
588,49.7620410388892
589,49.7620410388892
590,0.0
120,57600.0
2,4, 1, 4, 0, 1, 0.00,60.00,Wednesday
7,2.1
314,17.972272889364406
315,0.0
379,0.0
393,0.0
394,0.0
396,0.0
397,0.0
448,0.0
449,59.998690934730209
450,59.998690934730209
587,0.0
588,49.7620410388892
589,49.7620410388892
590,0.0
120,43200.0
2,4, 1, 4, 0, 2, 0.00,60.00,Wednesday
7,1.4
314,17.77248345066809
315,0.0
379,0.0
393,0.0
394,0.0
396,0.0
397,0.0
448,0.0
449,59.998690934730209
450,59.998690934730209
587,0.0
588,49.7620410388892
589,49.7620410388892
590,0.0
120,43200.0
2,4, 1, 4, 0, 3, 0.00,60.00,Wednesday
7,0.8
314,17.663187781995537
315,0.0
379,0.0
393,0.0
394,0.0
396,0.0
397,0.0
448,0.0
449,59.998690934730209
450,59.998690934730209
587,0.0
588,49.7620410388892
589,49.7620410388892
590,0.0
120,43200.0
2,4, 1, 4, 0, 4, 0.00,60.00,Wednesday
7,0.1
314,17.554370608180358
315,0.0
379,0.0
393,0.0
394,0.0
396,0.0
397,0.0
448,0.0
449,59.998690934730209
450,59.998690934730209
587,0.0
588,49.7620410388892
589,49.7620410388892
590,0.0
120,43200.0
2,4, 1, 4, 0, 5, 0.00,60.00,Wednesday
7,-0.3
314,17.440467156192946
315,0.0
379,0.0
393,0.0
394,0.0
396,0.0
397,0.0
448,0.0
449,59.998690934730209
450,59.998690934730209
587,0.0
588,49.7620410388892
589,49.7620410388892
590,0.0
120,43200.0
2,4, 1, 4, 0, 6, 0.00,60.00,Wednesday
7,-0.7
314,21.542849807799848
315,0.0
379,0.0
393,0.0
394,0.0
396,0.0
397,1033.1007450168688
448,0.03532972933333334
449,59.925361384626
450,50.06133129598536
587,1464.3891585659399
588,49.85531196471104
589,59.83053363446038
590,0.03532972933333334
120,5315000.970837384
2,4, 1, 4, 0, 7, 0.00,60.00,Wednesday
7,-1.1
314,21.871960240570347
315,0.0
379,0.0
393,0.0
394,0.0
396,0.0
397,1086.954589999761
448,0.0454641121875
449,59.871140855872038
450,50.58860318008503
587,1840.183741779691
588,50.1053136021509
589,59.79851953206509
590,0.0454641121875
120,6826261.470406888
2,4, 1, 4, 0, 8, 0.00,60.00,Wednesday
7,-1.4
314,22.119823554189979
315,0.0
379,0.0
393,0.0
394,0.0
396,0.0
397,1049.9210257651066
448,0.04226131390625
449,59.90285679147322
450,50.5277625030759
587,1715.0472188752008
588,50.29399068163769
589,59.99999999999999
590,0.04226131390625
120,6526969.987950723
2,4, 1, 4, 0, 9, 0.00,60.00,Wednesday
7,-1.8
314,19.850734830704618
315,0.0
379,0.0
393,0.0
394,0.0
396,0.0
397,900.6763169708679
448,0.04285277142857142
449,59.93105257304258
450,51.81808730492392
587,1714.2857142857142
588,50.39240353456604
589,58.59329058111563
590,0.04285277142857142
120,6473828.571428573
2,4, 1, 4, 0,10, 0.00,60.00,Wednesday
7,-2.1
314,20.106783719357574
315,0.0
379,0.0
393,0.0
394,0.0
396,0.0
397,1162.322536473204
448,0.046557750625
449,59.95581725824658
450,50.376287374965048
587,1861.9901868410825
588,50.434951887692658
589,59.99999999999999
590,0.046557750625
120,6933564.672627897
2,4, 1, 4, 0,11, 0.00,60.00,Wednesday
7,-2.4
314,20.09012634611146
315,0.0
379,0.0
393,0.0
394,0.0
396,0.0
397,916.0176150436623
448,0.034683961875
449,59.97300793966237
450,49.85574961220872
587,1400.4694305424234
588,50.34281564295665
589,59.99999999999999
590,0.034683961875
120,5236089.949952724
2,4, 1, 4, 0,12, 0.00,60.00,Wednesday
7,-2.6
314,20.08793990108172
315,0.0
379,0.0
393,0.0
394,0.0
396,0.0
397,936.0018019963912
448,0.03585571734375001
449,59.98231910839429
450,49.94909062197681
587,1466.9400529549432
588,50.21490933080269
589,60.0
590,0.03585571734375001
120,5518584.190637795
2,4, 1, 4, 0,13, 0.00,60.00,Wednesday
7,-2.9
314,20.09112433588599
315,0.0
379,0.0
393,0.0
394,0.0
396,0.0
397,939.4058990457446
448,0.03609006843750001
449,59.988508264904847
450,49.97674847011098
587,1486.3353305792753
588,50.149853227037748
589,59.99999999999999
590,0.03609006843750001
120,5646007.190085391
2,4, 1, 4, 0,14, 0.00,60.00,Wednesday
7,-3.5
314,20.09495261560017
315,0.0
379,0.0
393,0.0
394,0.0
396,0.0
397,1013.548987479271
448,0.039683451875000008
449,59.99269573390105
450,50.15860281229995
587,1634.6694727520949
588,50.1477777014096
589,60.0
590,0.039683451875000008
120,6136810.101907541
2,4, 1, 4, 0,15, 0.00,60.00,Wednesday
7,-4.2
314,20.095585413356884
315,0.0
379,0.0
393,0.0
394,0.0
396,0.0
397,1061.1086676274924
448,0.042105079843750007
449,59.99552389746218
450,50.282775042293739
587,1724.540324176872
588,50.20396752223096
589,60.000000000000017
590,0.042105079843750007
120,6453145.167036739
2,4, 1, 4, 0,16, 0.00,60.00,Wednesday
7,-4.8
314,20.098194892884945
315,0.0
379,0.0
393,0.0
394,0.0
396,0.0
397,1107.020703300022
448,0.0445267078125
449,59.99733539735699
450,50.40645726378469
587,1807.6908250544293
588,50.29017631191808
589,60.00000000000001
590,0.0445267078125
120,6716486.970195945
2,4, 1, 4, 0,17, 0.00,60.00,Wednesday
7,-5.1
314,20.08948591883143
315,0.0
379,0.0
393,0.0
394,0.0
396,0.0
397,1109.7767192195229
448,0.0448391759375
449,59.9984409472041
450,50.42568088761378
587,1805.441410168991
588,50.36991234882786
589,59.999999999999989
590,0.0448391759375
120,6729989.076608368
2,4, 1, 4, 0,18, 0.00,60.00,Wednesday
7,-5.5
314,20.08504689704025
315,0.0
379,0.0
393,0.0
394,0.0
396,0.0
397,1006.2848489977695
448,0.0395272178125
449,59.999062992713167
450,50.163609991637368
587,1592.3945584146275
588,50.36483598274525
589,60.0
590,0.0395272178125
120,6092620.410292659
2,4, 1, 4, 0,19, 0.00,60.00,Wednesday
7,-5.8
314,20.44566043451201
315,0.0
379,0.0
393,0.0
394,0.0
396,0.0
397,482.11657112187199
448,0.017998164000000005
449,59.99934168864189
450,53.80912373553443
587,731.66647662085
588,50.27713212905737
589,56.11083793118518
590,0.017998164000000005
120,2986799.3158350598
2,4, 1, 4, 0,20, 0.00,60.00,Wednesday
7,-5.9
314,20.758618135206164
315,0.0
379,0.0
393,0.0
394,0.0
396,0.0
397,597.2719098260989
448,0.022497705000000004
449,59.99947733239669
450,52.290045967486609
587,924.9051533023031
588,50.17204469560134
589,57.54655401470095
590,0.022497705000000004
120,3617658.5518882919
2,4, 1, 4, 0,21, 0.00,60.00,Wednesday
7,-6.1
314,19.240323461191715
315,0.0
379,0.0
393,0.0
394,0.0
396,0.0
397,0.0
448,0.0
449,59.999549547462738
450,59.999549547462738
587,0.0
588,50.1177212784976
589,50.1177212784976
590,0.0
120,259200.0
2,4, 1, 4, 0,22, 0.00,60.00,Wednesday
7,-6.2
314,18.81573126728764
315,0.0
379,0.0
393,0.0
394,0.0
396,0.0
397,0.0
448,0.0
449,59.999549547462738
450,59.999549547462738
587,0.0
588,50.1177212784976
589,50.1177212784976
590,0.0
120,324000.0
2,4, 1, 4, 0,23, 0.00,60.00,Wednesday
7,-6.2
314,18.33830311512706
315,0.0
379,0.0
393,0.0
394,0.0
396,0.0
397,0.0
448,0.0
449,59.999549547462738
450,59.999549547462738
587,0.0
588,50.1177212784976
589,50.1177212784976
590,0.0
120,216000.0
2,4, 1, 4, 0,24, 0.00,60.00,Wednesday
7,-6.3
314,17.874354966986844
315,0.0
379,0.0
393,0.0
394,0.0
396,0.0
397,0.0
448,0.0
449,59.999549547462738
450,59.999549547462738
587,0.0
588,50.1177212784976
589,50.1177212784976
590,0.0
120,57600.0
2,5, 1, 5, 0, 1, 0.00,60.00,Thursday
7,-6.3
314,17.394671360333704
315,0.0
379,0.0
393,0.0
394,0.0
396,0.0
397,0.0
448,0.0
449,59.999549547462738
450,59.999549547462738
587,0.0
588,50.1177212784976
589,50.1177212784976
590,0.0
120,43200.0
2,5, 1, 5, 0, 2, 0.00,60.00,Thursday
7,-6.4
314,17.23471073385492
315,0.0
379,0.0
393,0.0
394,0.0
396,0.0
397,0.0
448,0.0
449,59.999549547462738
450,59.999549547462738
587,0.0
588,50.1177212784976
589,50.1177212784976
590,0.0
120,43200.0
2,5, 1, 5, 0, 3, 0.00,60.00,Thursday
7,-6.5
314,17.115920352062188
315,0.0
379,0.0
393,0.0
394,0.0
396,0.0
397,0.0
448,0.0
449,59.999549547462738
450,59.999549547462738
587,0.0
588,50.1177212784976
589,50.1177212784976
590,0.0
120,43200.0
2,5, 1, 5, 0, 4, 0.00,60.00,Thursday
7,-6.6
314,16.98674219321161
315,0.0
379,0.0
393,0.0
394,0.0
396,0.0
397,0.0
448,0.0
449,59.999549547462738
450,59.999549547462738
587,0.0
588,50.1177212784976
589,50.1177212784976
590,0.0
120,43200.0
2,5, 1, 5, 0, 5, 0.00,60.00,Thursday
7,-6.4
314,16.87220400369088
315,0.0
379,0.0
393,0.0
394,0.0
396,0.0
397,0.0
448,0.0
449,59.999549547462738
450,59.999549547462738
587,0.0
588,50.1177212784976
589,50.1177212784976
590,0.0
120,43200.0
2,5, 1, 5, 0, 6, 0.00,60.00,Thursday
7,-6.3
314,21.30993489773086
315,0.0
379,0.0
393,0.0
394,0.0
396,0.0
397,1223.625476319723
448,0.04300900549107143
449,59.95570306559698
450,50.3891517507202
587,1742.7693545103232
588,50.186887089267937
589,59.890431286108398
590,0.04300900549107143
120,6317169.676237163
2,5, 1, 5, 0, 7, 0.00,60.00,Thursday
7,-6.1
314,21.48220744143061
315,0.0
379,0.0
393,0.0
394,0.0
396,0.0
397,1152.9611105522386
448,0.049994899999999998
449,59.95015949864518
450,50.81498218386574
587,1995.3752303146557
588,50.40927257744006
589,59.95483911309245
590,0.049994899999999998
120,7384950.829132761
2,5, 1, 5, 0, 8, 0.00,60.00,Thursday
7,-5.8
314,21.95286174878072
315,0.0
379,0.0
393,0.0
394,0.0
396,0.0
397,1140.1425501072094
448,0.046753043203125