Program Version,EnergyPlus, Version 8.9.0-40101eaafd, YMD=2018.12.24 12:21
1,5,Environment Title[],Latitude[deg],Longitude[deg],Time Zone[],Elevation[m]
2,8,Day of Simulation[],Month[],Day of Month[],DST Indicator[1=yes 0=no],Hour[],StartMinute[],EndMinute[],DayType
3,5,Cumulative Day of Simulation[],Month[],Day of Month[],DST Indicator[1=yes 0=no],DayType  ! When Daily Report Variables Requested
4,2,Cumulative Days of Simulation[],Month[]  ! When Monthly Report Variables Requested
5,1,Cumulative Days of Simulation[] ! When Run Period Report Variables Requested
6,1,Calendar Year of Simulation[] ! When Annual Report Variables Requested
7,1,Environment,Site Outdoor Air Drybulb Temperature [C] !Hourly
8,1,ZONE ONE,Zone Mean Air Temperature [C] !Hourly
95,1,RADIATOR,Baseboard Total Heating Rate [W] !Hourly
158,1,RADIATOR,Baseboard Hot Water Mass Flow Rate [kg/s] !Hourly
159,1,RADIATOR,Baseboard Water Inlet Temperature [C] !Hourly
160,1,RADIATOR,Baseboard Water Outlet Temperature [C] !Hourly
198,1,DISTRICT HEATING 1,District Heating Rate [W] !Hourly
199,1,DISTRICT HEATING 1,District Heating Inlet Temperature [C] !Hourly
200,1,DISTRICT HEATING 1,District Heating Outlet Temperature [C] !Hourly
201,1,DISTRICT HEATING 1,District Heating Mass Flow Rate [kg/s] !Hourly
163,1,DistrictHeating:Facility [J] !Hourly
End of Data Dictionary
1,ANNUAL SIM 1,  59.65,  17.95,   1.00,  61.00
2,1, 5,27, 0, 1, 0.00,60.00,Saturday
7,3.3366666666666657
8,20.108453475703248
95,554.2758621555663
158,0.021104617942708339
159,60.0
160,52.792260714108717
198,899.7721518365053
199,49.80305456608178
200,56.94105678645098
201,0.021104617942708339
163,3239179.746611419
2,1, 5,27, 0, 2, 0.00,60.00,Saturday
7,1.345
8,20.101700244801525
95,647.7574937261747
158,0.024984430494791666
159,60.0
160,52.19318353588889
198,1064.3854048731248
199,49.80974402105435
200,57.62180988315046
201,0.024984430494791666
163,3831787.4575432494
2,1, 5,27, 0, 3, 0.00,60.00,Saturday
7,1.045
8,20.131855497164293
95,703.9085252833672
158,0.027226389291666668
159,60.0
160,51.526455973961997
198,1156.2063484468974
199,49.84216960417003
200,58.30644163832794
201,0.027226389291666668
163,4162342.8544088315
2,1, 5,27, 0, 4, 0.00,60.00,Saturday
7,0.7449999999999999
8,20.12194678362553
95,675.4265787304521
158,0.026096296239583335
159,60.0
160,51.861611595819308
198,1105.2507782173357
199,49.869765827296337
200,57.97367262304959
201,0.026096296239583335
163,3978902.801582409
2,1, 5,27, 0, 5, 0.00,60.00,Saturday
7,1.736666666666667
8,20.145804011383818
95,446.1349533765913
158,0.016998266000000006
159,60.0
160,54.165204496980788
198,720.2466551302447
199,49.864390510663579
200,55.60723321093183
201,0.016998266000000006
163,2592887.958468881
2,1, 5,27, 0, 6, 0.00,60.00,Saturday
7,3.9366666666666667
8,20.219250303153009
95,183.20605542969978
158,0.006999286000000001
159,60.0
160,57.595973785013679
198,296.95884035183357
199,49.85133031051732
200,52.21911497806031
201,0.006999286000000001
163,1069051.8252666009
2,1, 5,27, 0, 7, 0.00,60.00,Saturday
7,6.136666666666667
8,20.510293727911539
95,0.0
158,0.0
159,60.0
160,60.0
198,0.0
199,49.84848103810115
200,49.84848103810115
201,0.0
163,0.0
2,1, 5,27, 0, 8, 0.00,60.00,Saturday
7,7.975
8,22.103006238219704
95,0.0
158,0.0
159,60.0
160,60.0
198,0.0
199,49.84848103810115
200,49.84848103810115
201,0.0
163,0.0
2,1, 5,27, 0, 9, 0.00,60.00,Saturday
7,9.474999999999998
8,23.681135617249699
95,0.0
158,0.0
159,60.0
160,60.0
198,0.0
199,49.84848103810115
200,49.84848103810115
201,0.0
163,0.0
2,1, 5,27, 0,10, 0.00,60.00,Saturday
7,10.974999999999998
8,24.59699592166372
95,0.0
158,0.0
159,60.0
160,60.0
198,0.0
199,49.84848103810115
200,49.84848103810115
201,0.0
163,0.0
2,1, 5,27, 0,11, 0.00,60.00,Saturday
7,11.441666666666665
8,24.772164108536477
95,0.0
158,0.0
159,60.0
160,60.0
198,0.0
199,49.84848103810115
200,49.84848103810115
201,0.0
163,0.0
2,1, 5,27, 0,12, 0.00,60.00,Saturday
7,10.941666666666663
8,24.23581476406791
95,0.0
158,0.0
159,60.0
160,60.0
198,0.0
199,49.84848103810115
200,49.84848103810115
201,0.0
163,0.0
2,1, 5,27, 0,13, 0.00,60.00,Saturday
7,10.441666666666665
8,23.442856829726634
95,0.0
158,0.0
159,60.0
160,60.0
198,0.0
199,49.84848103810115
200,49.84848103810115
201,0.0
163,0.0
2,1, 5,27, 0,14, 0.00,60.00,Saturday
7,10.458333333333333
8,23.167006239593836
95,0.0
158,0.0
159,60.0
160,60.0
198,0.0
199,49.84848103810115
200,49.84848103810115
201,0.0
163,0.0
2,1, 5,27, 0,15, 0.00,60.00,Saturday
7,10.958333333333334
8,23.554778819292726
95,0.0
158,0.0
159,60.0
160,60.0
198,0.0
199,49.84848103810115
200,49.84848103810115
201,0.0
163,0.0
2,1, 5,27, 0,16, 0.00,60.00,Saturday
7,11.458333333333334
8,24.116581233050913
95,0.0
158,0.0
159,60.0
160,60.0
198,0.0
199,49.84848103810115
200,49.84848103810115
201,0.0
163,0.0
2,1, 5,27, 0,17, 0.00,60.00,Saturday
7,11.648333333333337
8,24.17663401205733
95,0.0
158,0.0
159,60.0
160,60.0
198,0.0
199,49.84848103810115
200,49.84848103810115
201,0.0
163,0.0
2,1, 5,27, 0,18, 0.00,60.00,Saturday
7,11.54833333333333
8,23.324359379932628
95,0.0
158,0.0
159,60.0
160,60.0
198,0.0
199,49.84848103810115
200,49.84848103810115
201,0.0
163,0.0
2,1, 5,27, 0,19, 0.00,60.00,Saturday
7,11.448333333333335
8,21.85216081981303
95,0.0
158,0.0
159,60.0
160,60.0
198,0.0
199,49.84848103810115
200,49.84848103810115
201,0.0
163,0.0
2,1, 5,27, 0,20, 0.00,60.00,Saturday
7,10.625
8,20.387503739303804
95,78.27087244836564
158,0.0029996940000000004
159,60.0
160,58.96953939026494
198,127.33753656497319
199,49.8476832388101
200,50.86300221782717
201,0.0029996940000000004
163,458415.13163390356
2,1, 5,27, 0,21, 0.00,60.00,Saturday
7,9.073333333333333
8,20.184102020265447
95,314.31461850971029
158,0.011998776000000005
159,60.0
160,55.88261301594967
198,509.66957748916107
199,49.84094977992977
200,53.904773902224679
201,0.011998776000000005
163,1834810.4789609796
2,1, 5,27, 0,22, 0.00,60.00,Saturday
7,7.525
8,20.158047182391959
95,419.6293034981701
158,0.015998368000000007
159,60.0
160,54.51100472464778
198,680.2563912711279
199,49.830354904843819
200,55.25434690451867
201,0.015998368000000007
163,2448923.00857606
2,1, 5,27, 0,23, 0.00,60.00,Saturday
7,6.386666666666668
8,20.16465114253638
95,498.5674236015189
158,0.018998062000000004
159,60.0
160,53.48165466111505
198,808.6592782771261
199,49.81945363801041
200,56.26726327450104
201,0.018998062000000004
163,2911173.401797654
2,1, 5,27, 0,24, 0.00,60.00,Saturday
7,5.638333333333334
8,20.192371288776259
95,524.4752452583054
158,0.019997960000000003
159,60.0
160,53.145005055529278
198,851.9151467506929
199,49.81104685534513
200,56.60375798208476
201,0.019997960000000003
163,3066894.5283024946
End of Data
 Number of Records Written=         264
