Program Version,EnergyPlus, Version 8.9.0-40101eaafd, YMD=2019.01.10 16:40
1,5,Environment Title[],Latitude[deg],Longitude[deg],Time Zone[],Elevation[m]
2,8,Day of Simulation[],Month[],Day of Month[],DST Indicator[1=yes 0=no],Hour[],StartMinute[],EndMinute[],DayType
3,5,Cumulative Day of Simulation[],Month[],Day of Month[],DST Indicator[1=yes 0=no],DayType  ! When Daily Report Variables Requested
4,2,Cumulative Days of Simulation[],Month[]  ! When Monthly Report Variables Requested
5,1,Cumulative Days of Simulation[] ! When Run Period Report Variables Requested
6,1,Calendar Year of Simulation[] ! When Annual Report Variables Requested
7,1,Environment,Site Outdoor Air Drybulb Temperature [C] !Hourly
314,1,ZONE ONE,Zone Air Temperature [C] !Hourly
315,1,ERV_1_HX,Heat Exchanger Total Heating Rate [W] !Hourly
379,1,ERV_1_FANSUPPLY,Fan Electric Power [W] !Hourly
393,1,ERV_1_FANSUPPLY,Fan Air Mass Flow Rate [kg/s] !Hourly
394,1,ERV_1_FANEXHAUST,Fan Electric Power [W] !Hourly
396,1,ERV_1_FANEXHAUST,Fan Air Mass Flow Rate [kg/s] !Hourly
397,1,RADIATOR,Baseboard Total Heating Rate [W] !Hourly
448,1,RADIATOR,Baseboard Hot Water Mass Flow Rate [kg/s] !Hourly
449,1,RADIATOR,Baseboard Water Inlet Temperature [C] !Hourly
450,1,RADIATOR,Baseboard Water Outlet Temperature [C] !Hourly
587,1,DISTRICT HEATING 1,District Heating Rate [W] !Hourly
588,1,DISTRICT HEATING 1,District Heating Inlet Temperature [C] !Hourly
589,1,DISTRICT HEATING 1,District Heating Outlet Temperature [C] !Hourly
590,1,DISTRICT HEATING 1,District Heating Mass Flow Rate [kg/s] !Hourly
120,1,DistrictHeating:Facility [J] !Hourly
End of Data Dictionary
1,ANNUAL SIM 1,  59.65,  17.95,   1.00,  61.00
2,1, 1, 1, 0, 1, 0.00,60.00,Sunday
7,4.0
314,18.131317080284405
315,0.0
379,0.0
393,0.0
394,0.0
396,0.0
397,0.0
448,0.0
449,55.0
450,55.0
587,0.0
588,45.46143873698523
589,45.46143873698523
590,0.0
120,43200.0
2,1, 1, 1, 0, 2, 0.00,60.00,Sunday
7,5.3
314,18.04852412373274
315,0.0
379,0.0
393,0.0
394,0.0
396,0.0
397,0.0
448,0.0
449,55.0
450,55.0
587,0.0
588,45.46143873698523
589,45.46143873698523
590,0.0
120,43200.0
2,1, 1, 1, 0, 3, 0.00,60.00,Sunday
7,6.2
314,18.033021511360365
315,0.0
379,0.0
393,0.0
394,0.0
396,0.0
397,0.0
448,0.0
449,55.0
450,55.0
587,0.0
588,45.46143873698523
589,45.46143873698523
590,0.0
120,43200.0
2,1, 1, 1, 0, 4, 0.00,60.00,Sunday
7,6.8
314,18.006742535035266
315,0.0
379,0.0
393,0.0
394,0.0
396,0.0
397,0.0
448,0.0
449,55.0
450,55.0
587,0.0
588,45.46143873698523
589,45.46143873698523
590,0.0
120,43200.0
2,1, 1, 1, 0, 5, 0.00,60.00,Sunday
7,7.2
314,17.96720661895517
315,0.0
379,0.0
393,0.0
394,0.0
396,0.0
397,0.0
448,0.0
449,55.0
450,55.0
587,0.0
588,45.46143873698523
589,45.46143873698523
590,0.0
120,43200.0
2,1, 1, 1, 0, 6, 0.00,60.00,Sunday
7,7.5
314,20.342954450050578
315,0.0
379,0.0
393,0.0
394,0.0
396,0.0
397,535.2723849759404
448,0.019997960000000007
449,55.0
450,49.206940279934929
587,796.7813585250524
588,45.46721522673625
589,51.18646805601428
590,0.019997960000000007
120,2911612.890690189
2,1, 1, 1, 0, 7, 0.00,60.00,Sunday
7,7.5
314,20.53301648497361
315,0.0
379,0.0
393,0.0
394,0.0
396,0.0
397,559.8696627580218
448,0.022497705000000004
449,55.0
450,47.71985685322508
587,898.54270285343
588,45.446900666930748
589,52.61289122305207
590,0.022497705000000004
120,3299553.730272348
2,1, 1, 1, 0, 8, 0.00,60.00,Sunday
7,6.7
314,20.539676083297687
315,0.0
379,0.0
393,0.0
394,0.0
396,0.0
397,474.49505995378709
448,0.019997960000000003
449,55.0
450,48.538282571578957
587,799.9442706668192
588,45.43164318286593
589,51.81130342468923
590,0.019997960000000003
120,3059799.374400549
2,1, 1, 1, 0, 9, 0.00,60.00,Sunday
7,6.0
314,20.58509372488428
315,0.0
379,0.0
393,0.0
394,0.0
396,0.0
397,516.1127084872309
448,0.019997960000000003
449,55.0
450,48.54216206702944
587,800.9321707962508
588,45.419786253765099
589,51.80732874162793
590,0.019997960000000003
120,3149755.814866503
2,1, 1, 1, 0,10, 0.00,60.00,Sunday
7,5.2
314,20.62461321395094
315,0.0
379,0.0
393,0.0
394,0.0
396,0.0
397,524.0319708706324
448,0.019997960000000003
449,55.0
450,48.552027522892569
587,801.5118073618805
588,45.41286583919645
589,51.80503312865473
590,0.019997960000000003
120,3137442.50650277
2,1, 1, 1, 0,11, 0.00,60.00,Sunday
7,5.2
314,20.3473885279181
315,0.0
379,0.0
393,0.0
394,0.0
396,0.0
397,761.8033802852283
448,0.029996940000000004
449,55.0
450,45.3417068561582
587,1202.9452547078088
588,45.40634308019227
589,55.00000000000001
590,0.029996940000000004
120,4561002.916948112
2,1, 1, 1, 0,12, 0.00,60.00,Sunday
7,5.2
314,20.408275096926407
315,0.0
379,0.0
393,0.0
394,0.0
396,0.0
397,757.6526502009502
448,0.029996940000000004
449,55.0
450,45.35508296712689
587,1202.6536701524703
588,45.40866957551107
589,54.99999999999999
590,0.029996940000000004
120,4581553.212548893
2,1, 1, 1, 0,13, 0.00,60.00,Sunday
7,5.2
314,20.503321742302686
315,0.0
379,0.0
393,0.0
394,0.0
396,0.0
397,751.9174299635832
448,0.029996940000000004
449,55.0
450,45.42092687596877
587,1200.8898574968478
588,45.42274267571514
589,55.0
590,0.029996940000000004
120,4625603.486988652
2,1, 1, 1, 0,14, 0.00,60.00,Sunday
7,4.6
314,20.323435333734709
315,0.0
379,0.0
393,0.0
394,0.0
396,0.0
397,746.6197687815992
448,0.029996940000000004
449,55.0
450,45.48507435845855
587,1197.1984360450379
588,45.45219571064144
589,55.0
590,0.029996940000000004
120,4576314.369762137
2,1, 1, 1, 0,15, 0.00,60.00,Sunday
7,4.1
314,20.14475107695831
315,0.0
379,0.0
393,0.0
394,0.0
396,0.0
397,746.5496179162668
448,0.029996940000000004
449,55.0
450,45.458379030846668
587,1194.0164758710216
588,45.47758380011894
589,55.0
590,0.029996940000000004
120,4557659.313135678
2,1, 1, 1, 0,16, 0.00,60.00,Sunday
7,3.5
314,20.07420046043341
315,0.0
379,0.0
393,0.0
394,0.0
396,0.0
397,773.9990506566205
448,0.031246812500000007
449,55.0
450,45.479730129182268
587,1241.45750560864
588,45.495274827773119
589,55.0
590,0.031246812500000007
120,4692447.020191104
2,1, 1, 1, 0,17, 0.00,60.00,Sunday
7,3.2
314,20.582044669738179
315,0.0
379,0.0
393,0.0
394,0.0
396,0.0
397,563.5069461499211
448,0.022497705000000004
449,55.0
450,47.82083920567935
587,893.3596751072255
588,45.500687976866817
589,52.62532443994612
590,0.022497705000000004
120,3446494.830386012
2,1, 1, 1, 0,18, 0.00,60.00,Sunday
7,2.9
314,20.412488533752307
315,0.0
379,0.0
393,0.0
394,0.0
396,0.0
397,342.99128531805
448,0.014998470000000002
449,55.0
450,50.21293216297251
587,595.3520169808728
588,45.5043075769899
589,50.25230112389825
590,0.014998470000000002
120,2467267.261131142
2,1, 1, 1, 0,19, 0.00,60.00,Sunday
7,2.6
314,20.393967417909708
315,0.0
379,0.0
393,0.0
394,0.0
396,0.0
397,367.3713190377439
448,0.014998470000000002
449,55.0
450,50.16016529977554
587,596.2302060959762
588,45.492383996178528
589,50.24738438029139
590,0.014998470000000002
120,2448828.7419455146
2,1, 1, 1, 0,20, 0.00,60.00,Sunday
7,2.5
314,20.487985243586317
315,0.0
379,0.0
393,0.0
394,0.0
396,0.0
397,364.941748085082
448,0.014998470000000002
449,55.0
450,50.148990142902849
587,597.3927792847089
588,45.47391900494411
589,50.23819526490582
590,0.014998470000000002
120,2402614.005424952
2,1, 1, 1, 0,21, 0.00,60.00,Sunday
7,2.4
314,19.491115196119507
315,0.0
379,0.0
393,0.0
394,0.0
396,0.0
397,0.0
448,0.0
449,55.0
450,55.0
587,0.0
588,45.46140139621662
589,45.46140139621662
590,0.0
120,216000.0
2,1, 1, 1, 0,22, 0.00,60.00,Sunday
7,2.3
314,19.19884167576968
315,0.0
379,0.0
393,0.0
394,0.0
396,0.0
397,0.0
448,0.0
449,55.0
450,55.0
587,0.0
588,45.46140139621662
589,45.46140139621662
590,0.0
120,244800.0
2,1, 1, 1, 0,23, 0.00,60.00,Sunday
7,2.3
314,18.704264550021678
315,0.0
379,0.0
393,0.0
394,0.0
396,0.0
397,0.0
448,0.0
449,55.0
450,55.0
587,0.0
588,45.46140139621662
589,45.46140139621662
590,0.0
120,187200.0
2,1, 1, 1, 0,24, 0.00,60.00,Sunday
7,2.2
314,18.42842544952739
315,0.0
379,0.0
393,0.0
394,0.0
396,0.0
397,0.0
448,0.0
449,55.0
450,55.0
587,0.0
588,45.46140139621662
589,45.46140139621662
590,0.0
120,86400.0
2,2, 1, 2, 0, 1, 0.00,60.00,Monday
7,2.2
314,17.92919658128125
315,0.0
379,0.0
393,0.0
394,0.0
396,0.0
397,0.0
448,0.0
449,55.0
450,55.0
587,0.0
588,45.46140139621662
589,45.46140139621662
590,0.0
120,43200.0
2,2, 1, 2, 0, 2, 0.00,60.00,Monday
7,2.2
314,17.762698709188464
315,0.0
379,0.0
393,0.0
394,0.0
396,0.0
397,0.0
448,0.0
449,55.0
450,55.0
587,0.0
588,45.46140139621662
589,45.46140139621662
590,0.0
120,43200.0
2,2, 1, 2, 0, 3, 0.00,60.00,Monday
7,2.1
314,17.661472846922828
315,0.0
379,0.0
393,0.0
394,0.0
396,0.0
397,0.0
448,0.0
449,55.0
450,55.0
587,0.0
588,45.46140139621662
589,45.46140139621662
590,0.0
120,43200.0
2,2, 1, 2, 0, 4, 0.00,60.00,Monday
7,2.1
314,17.589526491870424
315,0.0
379,0.0
393,0.0
394,0.0
396,0.0
397,0.0
448,0.0
449,55.0
450,55.0
587,0.0
588,45.46140139621662
589,45.46140139621662
590,0.0
120,43200.0
2,2, 1, 2, 0, 5, 0.00,60.00,Monday
7,2.1
314,17.505946640471245
315,0.0
379,0.0
393,0.0
394,0.0
396,0.0
397,0.0
448,0.0
449,55.0
450,55.0
587,0.0
588,45.46140139621662
589,45.46140139621662
590,0.0
120,43200.0
2,2, 1, 2, 0, 6, 0.00,60.00,Monday
7,2.0
314,20.191924154985448
315,0.0
379,0.0
393,0.0
394,0.0
396,0.0
397,635.4205942187398
448,0.023341368937500004
449,55.0
450,48.21709257403657
587,930.8309025836627
588,45.45680461576757
589,52.135708419545839
590,0.023341368937500004
120,3394191.249301186
2,2, 1, 2, 0, 7, 0.00,60.00,Monday
7,2.0
314,20.76965234247688
315,0.0
379,0.0
393,0.0
394,0.0
396,0.0
397,595.6680264572416
448,0.022497705000000004
449,55.0
450,47.78952519275915
587,899.0575270072279
588,45.44197572468444
589,52.61207394503803
590,0.022497705000000004
120,3438207.09722602
2,2, 1, 2, 0, 8, 0.00,60.00,Monday
7,2.0
314,21.50076306467512
315,0.0
379,0.0
393,0.0
394,0.0
396,0.0
397,809.4933053524883
448,0.029996940000000004
449,55.0
450,45.494554316588018
587,1196.0423517481122
588,45.46141983047397
589,55.0
590,0.029996940000000004
120,4658552.466293205
2,2, 1, 2, 0, 9, 0.00,60.00,Monday
7,1.9
314,20.061165959305734
315,0.0
379,0.0
393,0.0
394,0.0
396,0.0
397,907.1947803501799
448,0.04365179706250001
449,55.0
450,46.037245679430579
587,1712.7712885636429
588,45.60186832891211
589,55.0
590,0.04365179706250001
120,6468376.638829115
2,2, 1, 2, 0,10, 0.00,60.00,Monday
7,1.9
314,20.099017975362984
315,0.0
379,0.0
393,0.0
394,0.0
396,0.0
397,996.017809265993
448,0.041792611718750007
449,55.0
450,45.879519439075377
587,1607.1791863396363
588,45.80033792038894
589,54.99999999999999
590,0.041792611718750007
120,6016245.070822691
2,2, 1, 2, 0,11, 0.00,60.00,Monday
7,1.9
314,20.086432080287449
315,0.0
379,0.0
393,0.0
394,0.0
396,0.0
397,842.1595366300869
448,0.033980908593750008
449,55.0
450,45.52558034273638
587,1308.2186622181812
588,45.79014796830989
589,55.0
590,0.033980908593750008
120,4903987.183985452
2,2, 1, 2, 0,12, 0.00,60.00,Monday
7,1.9
314,20.08095741824121
315,0.0
379,0.0
393,0.0
394,0.0
396,0.0
397,804.953838199727
448,0.032418567968750009
449,55.0
450,45.48210072371927
587,1257.9649096328617
588,45.717103305604258
589,55.0
590,0.032418567968750009
120,4766273.674678302
2,2, 1, 2, 0,13, 0.00,60.00,Monday
7,1.9
314,20.078331649088363
315,0.0
379,0.0
393,0.0
394,0.0
396,0.0
397,787.876469778867
448,0.0317155146875
449,55.0
450,45.468275608057229
587,1238.1820555596964
588,45.66051916740091
589,55.00000000000001
590,0.0317155146875
120,4752655.400014907
2,2, 1, 2, 0,14, 0.00,60.00,Monday
7,1.6
314,20.083961256245734
315,0.0
379,0.0
393,0.0
394,0.0
396,0.0
397,850.0415129643573
448,0.0348401959375
449,55.0
450,45.62992767227135
587,1361.9419000684768
588,45.64835012915455
589,55.0
590,0.0348401959375
120,5154990.840246516
2,2, 1, 2, 0,15, 0.00,60.00,Monday
7,1.3
314,20.08174868122893
315,0.0
379,0.0
393,0.0
394,0.0
396,0.0
397,878.0851225662894
448,0.036324419531250009
449,55.0
450,45.71039073435359
587,1415.1808521374153
588,45.679851068152597
589,55.00000000000001
590,0.036324419531250009
120,5339451.067694695
2,2, 1, 2, 0,16, 0.00,60.00,Monday
7,1.0
314,20.08708874056784
315,0.0
379,0.0
393,0.0
394,0.0
396,0.0
397,909.0053612231517
448,0.03796487718750001
449,55.0
450,45.794974464670989
587,1470.9932187530042
588,45.73090780657475
589,55.0
590,0.03796487718750001
120,5504375.587510815
2,2, 1, 2, 0,17, 0.00,60.00,Monday
7,0.9
314,20.08370924581126
315,0.0
379,0.0
393,0.0
394,0.0
396,0.0
397,900.8026441262465
448,0.037574292031250008
449,55.0
450,45.77924699763571
587,1448.9394368508379
588,45.77498584407067
589,55.0
590,0.037574292031250008
120,5446581.972663016
2,2, 1, 2, 0,18, 0.00,60.00,Monday
7,0.7
314,20.07355845804011
315,0.0
379,0.0
393,0.0
394,0.0
396,0.0
397,783.1690272690647
448,0.0317155146875
449,55.0
450,45.494805264688498
587,1226.208773946617
588,45.750872392025637
589,55.0
590,0.0317155146875
120,4774351.586207821
2,2, 1, 2, 0,19, 0.00,60.00,Monday
7,0.6
314,20.539526041663537
315,0.0
379,0.0
393,0.0
394,0.0
396,0.0
397,453.3031762383139
448,0.017998164000000005
449,55.0
450,49.24389469322843
587,700.2678926334066
588,45.69213232364702
589,51.27679047660529
590,0.017998164000000005
120,2873764.413480264
2,2, 1, 2, 0,20, 0.00,60.00,Monday
7,0.6
314,20.507772101905247
315,0.0
379,0.0
393,0.0
394,0.0
396,0.0
397,366.79119850825506
448,0.014998470000000002
449,55.0
450,50.22391916545204
587,585.7212707174472
588,45.65448914257485
589,50.32564215193822
590,0.014998470000000002
120,2396596.57458281
2,2, 1, 2, 0,21, 0.00,60.00,Monday
7,0.6
314,19.124109147821068
315,0.0
379,0.0
393,0.0
394,0.0
396,0.0
397,0.0
448,0.0
449,55.0
450,55.0
587,0.0
588,45.64320005810611
589,45.64320005810611
590,0.0
120,259200.0
2,2, 1, 2, 0,22, 0.00,60.00,Monday
7,0.6
314,18.92740802473046
315,0.0
379,0.0
393,0.0
394,0.0
396,0.0
397,0.0
448,0.0
449,55.0
450,55.0
587,0.0
588,45.64320005810611
589,45.64320005810611
590,0.0
120,324000.0
2,2, 1, 2, 0,23, 0.00,60.00,Monday
7,0.8
314,18.519263980779646
315,0.0
379,0.0
393,0.0
394,0.0
396,0.0
397,0.0
448,0.0
449,55.0
450,55.0
587,0.0
588,45.64320005810611
589,45.64320005810611
590,0.0
120,216000.0
2,2, 1, 2, 0,24, 0.00,60.00,Monday
7,0.9
314,18.24921566630558
315,0.0
379,0.0
393,0.0
394,0.0
396,0.0
397,0.0
448,0.0
449,55.0
450,55.0
587,0.0
588,45.64320005810611
589,45.64320005810611
590,0.0
120,57600.0
2,3, 1, 3, 0, 1, 0.00,60.00,Tuesday
7,1.1
314,17.75474804198508
315,0.0
379,0.0
393,0.0
394,0.0
396,0.0
397,0.0
448,0.0
449,55.0
450,55.0
587,0.0
588,45.64320005810611
589,45.64320005810611
590,0.0
120,43200.0
2,3, 1, 3, 0, 2, 0.00,60.00,Tuesday
7,0.9
314,17.603921714539358
315,0.0
379,0.0
393,0.0
394,0.0
396,0.0
397,0.0
448,0.0
449,55.0
450,55.0
587,0.0
588,45.64320005810611
589,45.64320005810611
590,0.0
120,43200.0
2,3, 1, 3, 0, 3, 0.00,60.00,Tuesday
7,0.6
314,17.52858364686672
315,0.0
379,0.0
393,0.0
394,0.0
396,0.0
397,0.0
448,0.0
449,55.0
450,55.0
587,0.0
588,45.64320005810611
589,45.64320005810611
590,0.0
120,43200.0
2,3, 1, 3, 0, 4, 0.00,60.00,Tuesday
7,0.4
314,17.413056773067269
315,0.0
379,0.0
393,0.0
394,0.0
396,0.0
397,0.0
448,0.0
449,55.0
450,55.0
587,0.0
588,45.64320005810611
589,45.64320005810611
590,0.0
120,43200.0
2,3, 1, 3, 0, 5, 0.00,60.00,Tuesday
7,0.6
314,17.331098195766616
315,0.0
379,0.0
393,0.0
394,0.0
396,0.0
397,0.0
448,0.0
449,55.0
450,55.0
587,0.0
588,45.64320005810611
589,45.64320005810611
590,0.0
120,43200.0
2,3, 1, 3, 0, 6, 0.00,60.00,Tuesday
7,0.9
314,20.236440040689826
315,0.0
379,0.0
393,0.0
394,0.0
396,0.0
397,744.8537342806651
448,0.027215973687500007
449,55.0
450,47.293831786071688
587,1066.6463175331903
588,45.6209062578472
589,53.123665434587518
590,0.027215973687500007
120,3883126.7431194849
2,3, 1, 3, 0, 7, 0.00,60.00,Tuesday
7,1.1
314,20.829094955316625
315,0.0
379,0.0
393,0.0
394,0.0
396,0.0
397,770.4761120535002
448,0.029996940000000004
449,55.0
450,45.39173850711101
587,1183.5887816072366
588,45.56078340833759
589,55.0
590,0.029996940000000004
120,4462519.613786051
2,3, 1, 3, 0, 8, 0.00,60.00,Tuesday
7,0.9
314,21.038053144906159
315,0.0
379,0.0
393,0.0
394,0.0
396,0.0
397,737.4863507290787
448,0.029996940000000004
449,55.0
450,45.458827199573459
587,1185.4345549931502
588,45.54605656022409
589,55.0
590,0.029996940000000004
120,4620364.3979753409
2,3, 1, 3, 0, 9, 0.00,60.00,Tuesday
7,0.8
314,20.017317343109278
315,0.0
379,0.0
393,0.0
394,0.0
396,0.0
397,951.648716688378
448,0.0432768353125
449,55.0
450,45.99401212217145
587,1690.3271906825598
588,45.647057096718729
589,55.0
590,0.0432768353125
120,6387577.886457215
2,3, 1, 3, 0,10, 0.00,60.00,Tuesday
7,0.6
314,20.10448907554808
315,0.0
379,0.0
393,0.0
394,0.0
396,0.0
397,1050.1338594092822
448,0.04476105890625
449,55.0
450,46.027041126125528
587,1711.9343900743074
588,45.850595934185708
589,55.00000000000001
590,0.04476105890625
120,6393363.804267507
2,3, 1, 3, 0,11, 0.00,60.00,Tuesday
7,1.1
314,20.090589785175685
315,0.0
379,0.0
393,0.0
394,0.0
396,0.0
397,929.8632867564139
448,0.038433579375000009
449,55.0
450,45.74657402246682
587,1463.5639856216537
588,45.89025751041497
589,55.0
590,0.038433579375000009
120,5463230.348237953
2,3, 1, 3, 0,12, 0.00,60.00,Tuesday
7,1.6
314,20.08350678440633
315,0.0
379,0.0
393,0.0
394,0.0
396,0.0
397,854.5024638244057
448,0.03476207890625
449,55.0
450,45.58779810621869
587,1332.0189632501845
588,45.83334115152097
589,55.0
590,0.03476207890625
120,5032868.267700664
2,3, 1, 3, 0,13, 0.00,60.00,Tuesday
7,2.1
314,20.07772950299984
315,0.0
379,0.0
393,0.0
394,0.0
396,0.0
397,793.0974588948534
448,0.031871748750000008
449,55.0
450,45.46018866945597
587,1232.0706888491025
588,45.75221295481102
589,54.99999999999999
590,0.031871748750000008
120,4730654.479856769
2,3, 1, 3, 0,14, 0.00,60.00,Tuesday
7,1.7
314,20.084830181106928
315,0.0
379,0.0
393,0.0
394,0.0
396,0.0
397,849.932451836956
448,0.034683961875
449,55.0
450,45.60171879266487
587,1347.84558985509
588,45.703477124809939
589,55.0
590,0.034683961875
120,5104244.123478324
2,3, 1, 3, 0,15, 0.00,60.00,Tuesday
7,1.4
314,20.08397212892192
315,0.0
379,0.0
393,0.0
394,0.0
396,0.0
397,873.5528852897693
448,0.03593383437500001
449,55.0
450,45.667828436594337
587,1396.4449236023604
588,45.70328849296497
589,55.00000000000001
590,0.03593383437500001
120,5272001.724968498
2,3, 1, 3, 0,16, 0.00,60.00,Tuesday
7,1.0
314,20.086673939816973
315,0.0
379,0.0
393,0.0
394,0.0
396,0.0
397,897.0838008336658
448,0.03718370687500001
449,55.00000000000001
450,45.73222551304004
587,1441.4404444934657
588,45.72630845122097
589,55.00000000000001
590,0.03718370687500001
120,5397985.600176477
2,3, 1, 3, 0,17, 0.00,60.00,Tuesday
7,1.0
314,20.08250729218388
315,0.0
379,0.0
393,0.0
394,0.0
396,0.0
397,881.1990222263997
448,0.036402536562500007
449,55.00000000000001
450,45.696983756866298
587,1408.3090551296075
588,45.745039664456907
589,55.00000000000001
590,0.036402536562500007
120,5300312.598466587
2,3, 1, 3, 0,18, 0.00,60.00,Tuesday
7,1.0
314,20.072110077707998
315,0.0
379,0.0
393,0.0
394,0.0
396,0.0
397,750.0383630420276
448,0.029996940000000004
449,55.00000000000001
450,45.38765290106866
587,1165.9945332310822
588,45.70116142835641
589,55.00000000000001
590,0.029996940000000004
120,4557580.319631896
2,3, 1, 3, 0,19, 0.00,60.00,Tuesday
7,1.0
314,20.625440247214337
315,0.0
379,0.0
393,0.0
394,0.0
396,0.0
397,456.28414705912339
448,0.017998164000000005
449,55.00000000000001
450,49.23706995150612
587,704.300756212285
588,45.63839661394931
589,51.255231389183538
590,0.017998164000000005
120,2888282.7223642265
2,3, 1, 3, 0,20, 0.00,60.00,Tuesday
7,1.0
314,20.589765955960045
315,0.0
379,0.0
393,0.0
394,0.0
396,0.0
397,366.035272380789
448,0.014998470000000002
449,55.00000000000001
450,50.221871748418489
587,588.5258293573415
588,45.61063714981651
589,50.304166687647057
590,0.014998470000000002
120,2406692.98568643
2,3, 1, 3, 0,21, 0.00,60.00,Tuesday
7,1.0
314,19.264763248012334
315,0.0
379,0.0
393,0.0
394,0.0
396,0.0
397,0.0
448,0.0
449,55.00000000000001
450,55.00000000000001
587,0.0
588,45.60193909210081
589,45.60193909210081
590,0.0
120,259200.0
2,3, 1, 3, 0,22, 0.00,60.00,Tuesday
7,1.0
314,19.068950615738115
315,0.0
379,0.0
393,0.0
394,0.0
396,0.0
397,0.0
448,0.0
449,55.00000000000001
450,55.00000000000001
587,0.0
588,45.60193909210081
589,45.60193909210081
590,0.0
120,324000.0
2,3, 1, 3, 0,23, 0.00,60.00,Tuesday
7,1.4
314,18.774650628469737
315,0.0
379,0.0
393,0.0
394,0.0
396,0.0
397,0.0
448,0.0
449,55.00000000000001
450,55.00000000000001
587,0.0
588,45.60193909210081
589,45.60193909210081
590,0.0
120,216000.0
2,3, 1, 3, 0,24, 0.00,60.00,Tuesday
7,1.7
314,18.466584452026326
315,0.0
379,0.0
393,0.0
394,0.0
396,0.0
397,0.0
448,0.0
449,55.00000000000001
450,55.00000000000001
587,0.0
588,45.60193909210081
589,45.60193909210081
590,0.0
120,57600.0
2,4, 1, 4, 0, 1, 0.00,60.00,Wednesday
7,2.1
314,17.907452642522608
315,0.0
379,0.0
393,0.0
394,0.0
396,0.0
397,0.0
448,0.0
449,55.00000000000001
450,55.00000000000001
587,0.0
588,45.60193909210081
589,45.60193909210081
590,0.0
120,43200.0
2,4, 1, 4, 0, 2, 0.00,60.00,Wednesday
7,1.4
314,17.73065708050717
315,0.0
379,0.0
393,0.0
394,0.0
396,0.0
397,0.0
448,0.0
449,55.00000000000001
450,55.00000000000001
587,0.0
588,45.60193909210081
589,45.60193909210081
590,0.0
120,43200.0
2,4, 1, 4, 0, 3, 0.00,60.00,Wednesday
7,0.8
314,17.652516718872137
315,0.0
379,0.0
393,0.0
394,0.0
396,0.0
397,0.0
448,0.0
449,55.00000000000001
450,55.00000000000001
587,0.0
588,45.60193909210081
589,45.60193909210081
590,0.0
120,43200.0
2,4, 1, 4, 0, 4, 0.00,60.00,Wednesday
7,0.1
314,17.54260923543562
315,0.0
379,0.0
393,0.0
394,0.0
396,0.0
397,0.0
448,0.0
449,55.00000000000001
450,55.00000000000001
587,0.0
588,45.60193909210081
589,45.60193909210081
590,0.0
120,43200.0
2,4, 1, 4, 0, 5, 0.00,60.00,Wednesday
7,-0.3
314,17.424288589244797
315,0.0
379,0.0
393,0.0
394,0.0
396,0.0
397,0.0
448,0.0
449,55.00000000000001
450,55.00000000000001
587,0.0
588,45.60193909210081
589,45.60193909210081
590,0.0
120,43200.0
2,4, 1, 4, 0, 6, 0.00,60.00,Wednesday
7,-0.7
314,20.205094278600027
315,0.0
379,0.0
393,0.0
394,0.0
396,0.0
397,702.7480025395856
448,0.02560502690972222
449,54.999999999999989
450,47.44755056976377
587,1008.7008494554635
588,45.57044082221662
589,52.902675981415978
590,0.02560502690972222
120,3674523.058039669
2,4, 1, 4, 0, 7, 0.00,60.00,Wednesday
7,-1.1
314,20.923410550662675
315,0.0
379,0.0
393,0.0
394,0.0
396,0.0
397,795.6240417414933
448,0.029996940000000004
449,55.00000000000001
450,45.4035604184773
587,1188.3060569150136
588,45.523145692685428
589,55.0
590,0.029996940000000004
120,4479501.80489405
2,4, 1, 4, 0, 8, 0.00,60.00,Wednesday
7,-1.4
314,21.129663002842674
315,0.0
379,0.0
393,0.0
394,0.0
396,0.0
397,750.2602294518882
448,0.029996940000000004
449,55.00000000000001
450,45.5566167644689
587,1186.2711392792626
588,45.539381706762039
589,55.0
590,0.029996940000000004
120,4623376.101405345
2,4, 1, 4, 0, 9, 0.00,60.00,Wednesday
7,-1.8
314,19.82985720151631
315,0.0
379,0.0
393,0.0
394,0.0
396,0.0
397,976.8582509575033
448,0.044995410000000009
449,55.00000000000001
450,46.0554913110936
587,1753.267365102315
588,45.66607363292013
589,55.0
590,0.044995410000000009
120,6614162.514368333
2,4, 1, 4, 0,10, 0.00,60.00,Wednesday
7,-2.1
314,20.01995075078379
315,0.0
379,0.0
393,0.0
394,0.0
396,0.0
397,1140.8679700207229
448,0.0499949
449,55.00000000000001
450,46.25104675973306
587,1892.1566581372806
588,45.94610517494286
589,55.00000000000001
590,0.0499949
120,7042163.96929421
2,4, 1, 4, 0,11, 0.00,60.00,Wednesday
7,-2.4
314,20.101272065975075
315,0.0
379,0.0
393,0.0
394,0.0
396,0.0
397,991.2472594765577
448,0.04163637765625
449,55.00000000000001
450,45.89598510952409
587,1561.5555547527024
588,46.028049750537849
589,55.0
590,0.04163637765625
120,5815999.997109729
2,4, 1, 4, 0,12, 0.00,60.00,Wednesday
7,-2.6
314,20.09759732219975
315,0.0
379,0.0
393,0.0
394,0.0
396,0.0
397,974.5405214923377
448,0.041167675468750008
449,55.00000000000001
450,45.92454667654921
587,1547.4422422546938
588,46.00790518304221
589,55.00000000000001
590,0.041167675468750008
120,5808392.072116897
2,4, 1, 4, 0,13, 0.00,60.00,Wednesday
7,-2.9
314,20.097726843294699
315,0.0
379,0.0
393,0.0
394,0.0
396,0.0
397,979.1954393614145
448,0.041558260625
449,55.00000000000001
450,45.96016210877463
587,1562.0384018634786
588,46.008397305039007
589,55.0
590,0.041558260625
120,5918538.246708523
2,4, 1, 4, 0,14, 0.00,60.00,Wednesday
7,-3.5
314,20.10239392579811
315,0.0
379,0.0
393,0.0
394,0.0
396,0.0
397,1048.5682770956687
448,0.04562034625
449,55.00000000000001
450,46.171788106417768
587,1704.125054141727
588,46.063972550427788
589,54.99999999999999
590,0.04562034625
120,6386850.194910218
2,4, 1, 4, 0,15, 0.00,60.00,Wednesday
7,-4.2
314,20.103111063203419
315,0.0
379,0.0
393,0.0
394,0.0
396,0.0
397,1092.6074535446473
448,0.04835444234375
449,55.0
450,46.31276790017212
587,1784.3401952583943
588,46.17244086101874
589,55.0
590,0.04835444234375
120,6668424.7029302199
2,4, 1, 4, 0,16, 0.00,60.00,Wednesday
7,-4.8
314,20.054075017042693
315,0.0
379,0.0
393,0.0
394,0.0
396,0.0
397,1117.63181739206
448,0.0499949
449,55.0
450,46.396387402168617
587,1821.4207644156227
588,46.2847148242825
589,55.0
590,0.0499949
120,6765914.751896242
2,4, 1, 4, 0,17, 0.00,60.00,Wednesday
7,-5.1
314,20.023586655557698
315,0.0
379,0.0
393,0.0
394,0.0
396,0.0
397,1116.9349561363088
448,0.0499949
449,55.0
450,46.386290712810808
587,1805.2663516717996
588,46.36204375655565
589,55.00000000000001
590,0.0499949
120,6729358.866018479
2,4, 1, 4, 0,18, 0.00,60.00,Wednesday
7,-5.5
314,20.088209627960347
315,0.0
379,0.0
393,0.0
394,0.0
396,0.0
397,1035.6289946928296
448,0.045151644062499999
449,55.0
450,46.13950568519019
587,1633.6227948230985
588,46.34486214258996
589,55.0
590,0.045151644062499999
120,6241042.061363155
2,4, 1, 4, 0,19, 0.00,60.00,Wednesday
7,-5.8
314,20.56216533293624
315,0.0
379,0.0
393,0.0
394,0.0
396,0.0
397,563.3044871974222
448,0.022497705000000004
449,55.0
450,47.792119476238337
587,827.2800396086145
588,46.21176767567905
589,52.809190381292747
590,0.022497705000000004
120,3331008.1425910128
2,4, 1, 4, 0,20, 0.00,60.00,Wednesday
7,-5.9
314,21.139987236174318
315,0.0
379,0.0
393,0.0
394,0.0
396,0.0
397,723.2607695086624
448,0.029996940000000004
449,55.0
450,45.56811637353912
587,1125.145556297151
588,46.027072993397798
589,54.999999999999989
590,0.029996940000000004
120,4338524.002669743
2,4, 1, 4, 0,21, 0.00,60.00,Wednesday
7,-6.1
314,19.28288726743679
315,0.0
379,0.0
393,0.0
394,0.0
396,0.0
397,0.0
448,0.0
449,54.99999999999999
450,54.99999999999999
587,0.0
588,45.9664431639706
589,45.9664431639706
590,0.0
120,259200.0
2,4, 1, 4, 0,22, 0.00,60.00,Wednesday
7,-6.2
314,18.811243072884805
315,0.0
379,0.0
393,0.0
394,0.0
396,0.0
397,0.0
448,0.0
449,55.0
450,55.0
587,0.0
588,45.9664431639706
589,45.9664431639706
590,0.0
120,324000.0
2,4, 1, 4, 0,23, 0.00,60.00,Wednesday
7,-6.2
314,18.321066862296666
315,0.0
379,0.0
393,0.0
394,0.0
396,0.0
397,0.0
448,0.0
449,55.0
450,55.0
587,0.0
588,45.9664431639706
589,45.9664431639706
590,0.0
120,216000.0
2,4, 1, 4, 0,24, 0.00,60.00,Wednesday
7,-6.3
314,17.83769534193759
315,0.0
379,0.0
393,0.0
394,0.0
396,0.0
397,0.0
448,0.0
449,55.0
450,55.0
587,0.0
588,45.9664431639706
589,45.9664431639706
590,0.0
120,57600.0
2,5, 1, 5, 0, 1, 0.00,60.00,Thursday
7,-6.3
314,17.36383869648258
315,0.0
379,0.0
393,0.0
394,0.0
396,0.0
397,0.0
448,0.0
449,55.0
450,55.0
587,0.0
588,45.9664431639706
589,45.9664431639706
590,0.0
120,43200.0
2,5, 1, 5, 0, 2, 0.00,60.00,Thursday
7,-6.4
314,17.20345652650737
315,0.0
379,0.0
393,0.0
394,0.0
396,0.0
397,0.0
448,0.0
449,55.0
450,55.0
587,0.0
588,45.9664431639706
589,45.9664431639706
590,0.0
120,43200.0
2,5, 1, 5, 0, 3, 0.00,60.00,Thursday
7,-6.5
314,17.08544940406185
315,0.0
379,0.0
393,0.0
394,0.0
396,0.0
397,0.0
448,0.0
449,55.0
450,55.0
587,0.0
588,45.9664431639706
589,45.9664431639706
590,0.0
120,43200.0
2,5, 1, 5, 0, 4, 0.00,60.00,Thursday
7,-6.6
314,16.957469346076385
315,0.0
379,0.0
393,0.0
394,0.0
396,0.0
397,0.0
448,0.0
449,55.0
450,55.0
587,0.0
588,45.9664431639706
589,45.9664431639706
590,0.0
120,43200.0
2,5, 1, 5, 0, 5, 0.00,60.00,Thursday
7,-6.4
314,16.84395663895028
315,0.0
379,0.0
393,0.0
394,0.0
396,0.0
397,0.0
448,0.0
449,55.0
450,55.0
587,0.0
588,45.9664431639706
589,45.9664431639706
590,0.0
120,43200.0
2,5, 1, 5, 0, 6, 0.00,60.00,Thursday
7,-6.3
314,20.266399488378427
315,0.0
379,0.0
393,0.0
394,0.0
396,0.0
397,951.0763834527064
448,0.03363293272727273
449,55.0
450,45.41728468006842
587,1280.9255947618635
588,45.881738478937389
589,55.0
590,0.03363293272727273
120,4654532.141142709
2,5, 1, 5, 0, 7, 0.00,60.00,Thursday
7,-6.1
314,20.184389717182297
315,0.0
379,0.0
393,0.0
394,0.0
396,0.0
397,720.7158053145585
448,0.029996940000000004
449,55.0
450,45.27838868310144
587,1161.1725303156504
588,45.739634019741917
589,55.0
590,0.029996940000000004
120,4381821.109136342
2,5, 1, 5, 0, 8, 0.00,60.00,Thursday
7,-5.8
314,20.74014382565593
315,0.0
379,0.0
393,0.0
394,0.0
396,0.0
397,781.3992779945831
448,0.029996940000000004
449,55.0
450,45.33918398559725
587,1175.8422498751288
588,45.622590346301567
589,55.0
590,0.029996940000000004
120,4585832.099550463
2,5, 1, 5, 0, 9, 0.00,60.00,Thursday
7,-5.6
314,19.35547527358415
315,0.0
379,0.0
393,0.0
394,0.0
396,0.0
397,1062.4800020067837
448,0.04944808078125
449,55.0
450,46.197424144583028
587,1908.1413545092953
588,45.767233040231889
589,55.0
590,0.04944808078125
120,7171708.876233463
2,5, 1, 5, 0,10, 0.00,60.00,Thursday
7,-5.3
314,19.34926938263764
315,0.0
379,0.0
393,0.0
394,0.0
396,0.0
397,1155.5209292808697
448,0.0499949
449,55.0
450,46.048381568747689
587,1893.3263435250353
588,45.940505849570218
589,55.0
590,0.0499949
120,7046374.836690127
2,5, 1, 5, 0,11, 0.00,60.00,Thursday
7,-4.9
314,19.797444401691224
315,0.0
379,0.0
393,0.0
394,0.0
396,0.0
397,1153.0593579418835
448,0.0499949
449,55.0
450,46.205933641103829
587,1869.8219474686066
588,46.05302159855648
589,55.0
590,0.0499949
120,6925759.010886984
2,5, 1, 5, 0,12, 0.00,60.00,Thursday
7,-4.4
314,20.049991415296007
315,0.0
379,0.0
393,0.0
394,0.0
396,0.0
397,1133.400108849328
448,0.0499949
449,55.0
450,46.315409593705329
587,1842.6092295813787
588,46.183287713770258
589,54.99999999999999
590,0.0499949