Program Version,EnergyPlus, Version 8.9.0-40101eaafd, YMD=2019.01.10 16:53
1,5,Environment Title[],Latitude[deg],Longitude[deg],Time Zone[],Elevation[m]
2,8,Day of Simulation[],Month[],Day of Month[],DST Indicator[1=yes 0=no],Hour[],StartMinute[],EndMinute[],DayType
3,5,Cumulative Day of Simulation[],Month[],Day of Month[],DST Indicator[1=yes 0=no],DayType  ! When Daily Report Variables Requested
4,2,Cumulative Days of Simulation[],Month[]  ! When Monthly Report Variables Requested
5,1,Cumulative Days of Simulation[] ! When Run Period Report Variables Requested
6,1,Calendar Year of Simulation[] ! When Annual Report Variables Requested
7,1,Environment,Site Outdoor Air Drybulb Temperature [C] !Hourly
314,1,ZONE ONE,Zone Air Temperature [C] !Hourly
315,1,ERV_1_HX,Heat Exchanger Total Heating Rate [W] !Hourly
379,1,ERV_1_FANSUPPLY,Fan Electric Power [W] !Hourly
393,1,ERV_1_FANSUPPLY,Fan Air Mass Flow Rate [kg/s] !Hourly
394,1,ERV_1_FANEXHAUST,Fan Electric Power [W] !Hourly
396,1,ERV_1_FANEXHAUST,Fan Air Mass Flow Rate [kg/s] !Hourly
397,1,RADIATOR,Baseboard Total Heating Rate [W] !Hourly
448,1,RADIATOR,Baseboard Hot Water Mass Flow Rate [kg/s] !Hourly
449,1,RADIATOR,Baseboard Water Inlet Temperature [C] !Hourly
450,1,RADIATOR,Baseboard Water Outlet Temperature [C] !Hourly
587,1,DISTRICT HEATING 1,District Heating Rate [W] !Hourly
588,1,DISTRICT HEATING 1,District Heating Inlet Temperature [C] !Hourly
589,1,DISTRICT HEATING 1,District Heating Outlet Temperature [C] !Hourly
590,1,DISTRICT HEATING 1,District Heating Mass Flow Rate [kg/s] !Hourly
120,1,DistrictHeating:Facility [J] !Hourly
End of Data Dictionary
1,ANNUAL SIM 1,  59.65,  17.95,   1.00,  61.00
2,1, 1, 1, 0, 1, 0.00,60.00,Sunday
7,4.0
314,18.166014435752378
315,0.0
379,0.0
393,0.0
394,0.0
396,0.0
397,0.0
448,0.0
449,59.99936038375889
450,59.99936038375889
587,0.0
588,49.79344392301866
589,49.79344392301866
590,0.0
120,43200.0
2,1, 1, 1, 0, 2, 0.00,60.00,Sunday
7,5.3
314,18.078391099165278
315,0.0
379,0.0
393,0.0
394,0.0
396,0.0
397,0.0
448,0.0
449,59.99936038375889
450,59.99936038375889
587,0.0
588,49.79344392301866
589,49.79344392301866
590,0.0
120,43200.0
2,1, 1, 1, 0, 3, 0.00,60.00,Sunday
7,6.2
314,18.063294172478906
315,0.0
379,0.0
393,0.0
394,0.0
396,0.0
397,0.0
448,0.0
449,59.99936038375889
450,59.99936038375889
587,0.0
588,49.79344392301866
589,49.79344392301866
590,0.0
120,43200.0
2,1, 1, 1, 0, 4, 0.00,60.00,Sunday
7,6.8
314,18.0367394065506
315,0.0
379,0.0
393,0.0
394,0.0
396,0.0
397,0.0
448,0.0
449,59.99936038375889
450,59.99936038375889
587,0.0
588,49.79344392301866
589,49.79344392301866
590,0.0
120,43200.0
2,1, 1, 1, 0, 5, 0.00,60.00,Sunday
7,7.2
314,17.995928326558013
315,0.0
379,0.0
393,0.0
394,0.0
396,0.0
397,0.0
448,0.0
449,59.99936038375889
450,59.99936038375889
587,0.0
588,49.79344392301866
589,49.79344392301866
590,0.0
120,43200.0
2,1, 1, 1, 0, 6, 0.00,60.00,Sunday
7,7.5
314,21.91444302720087
315,0.0
379,0.0
393,0.0
394,0.0
396,0.0
397,882.9398414488436
448,0.03090644543526785
449,59.93982462397543
450,51.54147639838951
587,1281.0741193554838
588,49.884062930666697
589,58.42513306186516
590,0.03090644543526785
120,4655066.829679743
2,1, 1, 1, 0, 7, 0.00,60.00,Sunday
7,7.5
314,22.127891325657634
315,0.0
379,0.0
393,0.0
394,0.0
396,0.0
397,789.1041001512305
448,0.029996940000000004
449,59.95125049094776
450,50.14250831030462
587,1257.4374063364316
588,49.9739516462735
589,60.00000000000001
590,0.029996940000000004
120,4591574.662811154
2,1, 1, 1, 0, 8, 0.00,60.00,Sunday
7,6.7
314,21.872694420543824
315,0.0
379,0.0
393,0.0
394,0.0
396,0.0
397,791.944449991869
448,0.029996940000000004
449,59.96598862162667
450,50.01296245910394
587,1251.1754361367125
588,50.02391608081157
589,59.99999999999999
590,0.029996940000000004
120,4684231.570092165
2,1, 1, 1, 0, 9, 0.00,60.00,Sunday
7,6.0
314,21.66239302068464
315,0.0
379,0.0
393,0.0
394,0.0
396,0.0
397,795.7946847334641
448,0.029996940000000004
449,59.97627106649188
450,49.95745729850897
587,1250.2286078002203
588,50.031472699598669
589,60.0
590,0.029996940000000004
120,4767222.988080793
2,1, 1, 1, 0,10, 0.00,60.00,Sunday
7,5.2
314,19.52031206043415
315,0.0
379,0.0
393,0.0
394,0.0
396,0.0
397,0.0
448,0.0
449,59.980286553887427
450,59.980286553887427
587,0.0
588,50.03000850351684
589,50.03000850351684
590,0.0
120,252000.0
2,1, 1, 1, 0,11, 0.00,60.00,Sunday
7,5.2
314,19.1151531131016
315,0.0
379,0.0
393,0.0
394,0.0
396,0.0
397,408.032697652405
448,0.014998470000000002
449,59.98154692237212
450,54.60161593849823
587,629.2277871176677
588,49.98132171973497
589,54.998406996837179
590,0.014998470000000002
120,2495620.0336236038
2,1, 1, 1, 0,12, 0.00,60.00,Sunday
7,5.2
314,19.5305610300785
315,0.0
379,0.0
393,0.0
394,0.0
396,0.0
397,537.3290807384444
448,0.019997960000000003
449,59.985222025590079
450,52.90572018911432
587,848.4281250483473
588,49.85654948651433
589,56.621443509522489
590,0.019997960000000003
120,3306341.25017405
2,1, 1, 1, 0,13, 0.00,60.00,Sunday
7,5.2
314,20.649421910664065
315,0.0
379,0.0
393,0.0
394,0.0
396,0.0
397,813.0403132734618
448,0.029996940000000004
449,59.98912251423801
450,49.66552443422369
587,1281.484846116056
588,49.78211808171354
589,60.0
590,0.029996940000000004
120,4915745.446017802
2,1, 1, 1, 0,14, 0.00,60.00,Sunday
7,4.6
314,20.993505752972518
315,0.0
379,0.0
393,0.0
394,0.0
396,0.0
397,946.4584565916743
448,0.037378999453125009
449,59.99279532468979
450,50.16762131152252
587,1580.199760670996
588,49.89242128865787
589,60.0
590,0.037378999453125009
120,5955119.138415586
2,1, 1, 1, 0,15, 0.00,60.00,Sunday
7,4.1
314,20.398531712246134
315,0.0
379,0.0
393,0.0
394,0.0
396,0.0
397,766.5686662602814
448,0.029996940000000004
449,59.99515425317617
450,49.834172793079137
587,1261.1732199989847
588,49.94415018259708
589,60.0
590,0.029996940000000004
120,4799423.591996346
2,1, 1, 1, 0,16, 0.00,60.00,Sunday
7,3.5
314,20.261380709434609
315,0.0
379,0.0
393,0.0
394,0.0
396,0.0
397,799.8353095762571
448,0.029996940000000004
449,59.99661923715888
450,49.73759402681405
587,1265.2608081288442
588,49.91154243563186
589,60.0
590,0.029996940000000004
120,4778138.909263839
2,1, 1, 1, 0,17, 0.00,60.00,Sunday
7,3.2
314,18.95551558499904
315,0.0
379,0.0
393,0.0
394,0.0
396,0.0
397,0.0
448,0.0
449,59.99719134085546
450,59.99719134085546
587,0.0
588,49.893166723675978
589,49.893166723675978
590,0.0
120,230400.0
2,1, 1, 1, 0,18, 0.00,60.00,Sunday
7,2.9
314,18.809488802147376
315,0.0
379,0.0
393,0.0
394,0.0
396,0.0
397,0.0
448,0.0
449,59.99719134085546
450,59.99719134085546
587,0.0
588,49.893166723675978
589,49.893166723675978
590,0.0
120,324000.0
2,1, 1, 1, 0,19, 0.00,60.00,Sunday
7,2.6
314,19.549561782052256
315,0.0
379,0.0
393,0.0
394,0.0
396,0.0
397,152.05140905564708
448,0.00545398909090909
449,59.997305553660257
450,58.057063792452797
587,230.83470447771527
588,49.87263851687247
589,51.713183923935648
590,0.00545398909090909
120,1133404.936119775
2,1, 1, 1, 0,20, 0.00,60.00,Sunday
7,2.5
314,20.465028563468228
315,0.0
379,0.0
393,0.0
394,0.0
396,0.0
397,371.4340558411642
448,0.013331973333333334
449,59.99758054799539
450,55.36786705146425
587,566.086760688059
588,49.843482857012627
589,54.35714565994178
590,0.013331973333333334
120,2289912.3384770129
2,1, 1, 1, 0,21, 0.00,60.00,Sunday
7,2.4
314,19.275627096017624
315,0.0
379,0.0
393,0.0
394,0.0
396,0.0
397,0.0
448,0.0
449,59.99775825932477
450,59.99775825932477
587,0.0
588,49.82966621259775
589,49.82966621259775
590,0.0
120,216000.0
2,1, 1, 1, 0,22, 0.00,60.00,Sunday
7,2.3
314,19.026409569161758
315,0.0
379,0.0
393,0.0
394,0.0
396,0.0
397,0.0
448,0.0
449,59.99775825932477
450,59.99775825932477
587,0.0
588,49.82966621259775
589,49.82966621259775
590,0.0
120,244800.0
2,1, 1, 1, 0,23, 0.00,60.00,Sunday
7,2.3
314,18.63964202840299
315,0.0
379,0.0
393,0.0
394,0.0
396,0.0
397,0.0
448,0.0
449,59.99775825932477
450,59.99775825932477
587,0.0
588,49.82966621259775
589,49.82966621259775
590,0.0
120,187200.0
2,1, 1, 1, 0,24, 0.00,60.00,Sunday
7,2.2
314,18.380236884310376
315,0.0
379,0.0
393,0.0
394,0.0
396,0.0
397,0.0
448,0.0
449,59.99775825932477
450,59.99775825932477
587,0.0
588,49.82966621259775
589,49.82966621259775
590,0.0
120,86400.0
2,2, 1, 2, 0, 1, 0.00,60.00,Monday
7,2.2
314,17.86754291874194
315,0.0
379,0.0
393,0.0
394,0.0
396,0.0
397,0.0
448,0.0
449,59.99775825932477
450,59.99775825932477
587,0.0
588,49.82966621259775
589,49.82966621259775
590,0.0
120,43200.0
2,2, 1, 2, 0, 2, 0.00,60.00,Monday
7,2.2
314,17.705091143774078
315,0.0
379,0.0
393,0.0
394,0.0
396,0.0
397,0.0
448,0.0
449,59.99775825932477
450,59.99775825932477
587,0.0
588,49.82966621259775
589,49.82966621259775
590,0.0
120,43200.0
2,2, 1, 2, 0, 3, 0.00,60.00,Monday
7,2.1
314,17.61146119595946
315,0.0
379,0.0
393,0.0
394,0.0
396,0.0
397,0.0
448,0.0
449,59.99775825932477
450,59.99775825932477
587,0.0
588,49.82966621259775
589,49.82966621259775
590,0.0
120,43200.0
2,2, 1, 2, 0, 4, 0.00,60.00,Monday
7,2.1
314,17.54165780375449
315,0.0
379,0.0
393,0.0
394,0.0
396,0.0
397,0.0
448,0.0
449,59.99775825932477
450,59.99775825932477
587,0.0
588,49.82966621259775
589,49.82966621259775
590,0.0
120,43200.0
2,2, 1, 2, 0, 5, 0.00,60.00,Monday
7,2.1
314,17.459150412367089
315,0.0
379,0.0
393,0.0
394,0.0
396,0.0
397,0.0
448,0.0
449,59.99775825932477
450,59.99775825932477
587,0.0
588,49.82966621259775
589,49.82966621259775
590,0.0
120,43200.0
2,2, 1, 2, 0, 6, 0.00,60.00,Monday
7,2.0
314,21.614035991586648
315,0.0
379,0.0
393,0.0
394,0.0
396,0.0
397,1030.1437574347456
448,0.03532972933333334
449,59.93192528462215
450,50.08482328433852
587,1459.3101750350602
588,49.91266236379335
589,59.84735987068772
590,0.03532972933333334
120,5296716.6301262159
2,2, 1, 2, 0, 7, 0.00,60.00,Monday
7,2.0
314,21.90669606258578
315,0.0
379,0.0
393,0.0
394,0.0
396,0.0
397,1062.1700875289384
448,0.044448590781250008
449,59.88456441805606
450,50.56711217102059
587,1795.928462267042
588,50.14544641687544
589,59.82283463599427
590,0.044448590781250008
120,6666942.464161351
2,2, 1, 2, 0, 8, 0.00,60.00,Monday
7,2.0
314,20.197298350033245
315,0.0
379,0.0
393,0.0
394,0.0
396,0.0
397,331.4757136901245
448,0.014998470000000002
449,59.893101789148847
450,54.67837818424897
587,616.3489693560958
588,50.20093620088319
589,55.11524487214814
590,0.014998470000000002
120,2571656.289681945
2,2, 1, 2, 0, 9, 0.00,60.00,Monday
7,1.9
314,18.407984518985168
315,0.0
379,0.0
393,0.0
394,0.0
396,0.0
397,361.82671386910729
448,0.014998470000000002
449,59.91071110882288
450,54.47996911695793
587,625.1362569696489
588,50.07341959196428
589,55.05785844907082
590,0.014998470000000002
120,2552890.525090736
2,2, 1, 2, 0,10, 0.00,60.00,Monday
7,1.9
314,19.830156102278076
315,0.0
379,0.0
393,0.0
394,0.0
396,0.0
397,857.0301243246827
448,0.029996940000000004
449,59.93459397340561
450,49.36200030522099
587,1272.709862176262
588,49.85211905762978
589,60.0
590,0.029996940000000004
120,4812155.503834543
2,2, 1, 2, 0,11, 0.00,60.00,Monday
7,1.9
314,20.09005587073027
315,0.0
379,0.0
393,0.0
394,0.0
396,0.0
397,814.9982631602631
448,0.030075057031250006
449,59.95438786704059
450,49.64979839750994
587,1284.44109632352
588,49.785149169041158
589,60.00000000000001
590,0.030075057031250006
120,4818387.946764672
2,2, 1, 2, 0,12, 0.00,60.00,Monday
7,1.9
314,20.081385703413749
315,0.0
379,0.0
393,0.0
394,0.0
396,0.0
397,824.0075836394566
448,0.030543759218750009
449,59.9682947004236
450,49.64299062490189
587,1307.3230761990396
588,49.76270538307502
589,60.0
590,0.030543759218750009
120,4943963.074316543
2,2, 1, 2, 0,13, 0.00,60.00,Monday
7,1.9
314,20.094683189651176
315,0.0
379,0.0
393,0.0
394,0.0
396,0.0
397,808.8143092150978
448,0.029996940000000004
449,59.97795436983094
450,49.6528079919239
587,1285.7977353998842
588,49.747712514624307
589,59.99999999999999
590,0.029996940000000004
120,4924071.847439583
2,2, 1, 2, 0,14, 0.00,60.00,Monday
7,1.6
314,20.083658646169039
315,0.0
379,0.0
393,0.0
394,0.0
396,0.0
397,858.1027499840776
448,0.03226233390625
449,59.98481496670926
450,49.785533327231849
587,1381.084620381447
588,49.761194315038839
589,60.00000000000001
590,0.03226233390625
120,5223904.633373209
2,2, 1, 2, 0,15, 0.00,60.00,Monday
7,1.3
314,20.085075098319739
315,0.0
379,0.0
393,0.0
394,0.0
396,0.0
397,889.6367021399416
448,0.0337465575
449,59.98977421540972
450,49.86845529638193
587,1438.4109182780217
588,49.80523139706718
589,60.0
590,0.0337465575
120,5423079.3058008779
2,2, 1, 2, 0,16, 0.00,60.00,Monday
7,1.0
314,20.08755154699274
315,0.0
379,0.0
393,0.0
394,0.0
396,0.0
397,916.6918461458937
448,0.03499643
449,59.99322970307494
450,49.93764892345624
587,1483.4792894916557
588,49.86134239636007
589,60.00000000000001
590,0.03499643
120,5549325.442169961
2,2, 1, 2, 0,17, 0.00,60.00,Monday
7,0.9
314,20.08416237006935
315,0.0
379,0.0
393,0.0
394,0.0
396,0.0
397,908.7061920550004
448,0.034683961875
449,59.99554310182166
450,49.92889604420334
587,1463.4464147719382
588,49.908171418852258
589,60.0
590,0.034683961875
120,5498807.093178977
2,2, 1, 2, 0,18, 0.00,60.00,Monday
7,0.7
314,20.110361687757668
315,0.0
379,0.0
393,0.0
394,0.0
396,0.0
397,802.4500530799211
448,0.029996940000000004
449,59.99698175087304
450,49.717562470875169
587,1266.4432113375735
588,49.902110080424609
589,60.0
590,0.029996940000000004
120,4919195.5608152649
2,2, 1, 2, 0,19, 0.00,60.00,Monday
7,0.6
314,20.630511650260588
315,0.0
379,0.0
393,0.0
394,0.0
396,0.0
397,487.0759634032345
448,0.017998164000000005
449,59.997745996392229
450,53.83090098661769
587,762.1179107732912
588,49.87211931190804
589,55.94881799287938
590,0.017998164000000005
120,3096424.478783848
2,2, 1, 2, 0,20, 0.00,60.00,Monday
7,0.6
314,20.59624913084913
315,0.0
379,0.0
393,0.0
394,0.0
396,0.0
397,393.1644424251016
448,0.014998470000000002
449,59.998192001314468
450,54.879624826077037
587,635.7504635500129
588,49.86097890974678
589,54.93009731166458
590,0.014998470000000002
120,2576701.6687800467
2,2, 1, 2, 0,21, 0.00,60.00,Monday
7,0.6
314,19.142773983041964
315,0.0
379,0.0
393,0.0
394,0.0
396,0.0
397,0.0
448,0.0
449,59.99831244164483
450,59.99831244164483
587,0.0
588,49.8567485888374
589,49.8567485888374
590,0.0
120,259200.0
2,2, 1, 2, 0,22, 0.00,60.00,Monday
7,0.6
314,18.933508699649797
315,0.0
379,0.0
393,0.0
394,0.0
396,0.0
397,0.0
448,0.0
449,59.99831244164482
450,59.99831244164482
587,0.0
588,49.85674858883739
589,49.85674858883739
590,0.0
120,324000.0
2,2, 1, 2, 0,23, 0.00,60.00,Monday
7,0.8
314,18.51275351534847
315,0.0
379,0.0
393,0.0
394,0.0
396,0.0
397,0.0
448,0.0
449,59.99831244164482
450,59.99831244164482
587,0.0
588,49.85674858883739
589,49.85674858883739
590,0.0
120,216000.0
2,2, 1, 2, 0,24, 0.00,60.00,Monday
7,0.9
314,18.24268212741422
315,0.0
379,0.0
393,0.0
394,0.0
396,0.0
397,0.0
448,0.0
449,59.99831244164482
450,59.99831244164482
587,0.0
588,49.85674858883739
589,49.85674858883739
590,0.0
120,57600.0
2,3, 1, 3, 0, 1, 0.00,60.00,Tuesday
7,1.1
314,17.748530224968719
315,0.0
379,0.0
393,0.0
394,0.0
396,0.0
397,0.0
448,0.0
449,59.99831244164482
450,59.99831244164482
587,0.0
588,49.85674858883739
589,49.85674858883739
590,0.0
120,43200.0
2,3, 1, 3, 0, 2, 0.00,60.00,Tuesday
7,0.9
314,17.59764325881616
315,0.0
379,0.0
393,0.0
394,0.0
396,0.0
397,0.0
448,0.0
449,59.99831244164482
450,59.99831244164482
587,0.0
588,49.85674858883739
589,49.85674858883739
590,0.0
120,43200.0
2,3, 1, 3, 0, 3, 0.00,60.00,Tuesday
7,0.6
314,17.52250113115724
315,0.0
379,0.0
393,0.0
394,0.0
396,0.0
397,0.0
448,0.0
449,59.99831244164482
450,59.99831244164482
587,0.0
588,49.85674858883739
589,49.85674858883739
590,0.0
120,43200.0
2,3, 1, 3, 0, 4, 0.00,60.00,Tuesday
7,0.4
314,17.407209475513825
315,0.0
379,0.0
393,0.0
394,0.0
396,0.0
397,0.0
448,0.0
449,59.99831244164482
450,59.99831244164482
587,0.0
588,49.85674858883739
589,49.85674858883739
590,0.0
120,43200.0
2,3, 1, 3, 0, 5, 0.00,60.00,Tuesday
7,0.6
314,17.32543544686146
315,0.0
379,0.0
393,0.0
394,0.0
396,0.0
397,0.0
448,0.0
449,59.99831244164482
450,59.99831244164482
587,0.0
588,49.85674858883739
589,49.85674858883739
590,0.0
120,43200.0
2,3, 1, 3, 0, 6, 0.00,60.00,Tuesday
7,0.9
314,21.49600233296022
315,0.0
379,0.0
393,0.0
394,0.0
396,0.0
397,1050.678280161636
448,0.035902587562500008
449,59.93519164161849
450,50.084470003114748
587,1481.7436461634975
588,49.931815064697058
589,59.853456455803357
590,0.035902587562500008
120,5377477.126188591
2,3, 1, 3, 0, 7, 0.00,60.00,Tuesday
7,1.1
314,21.88502175280304
315,0.0
379,0.0
393,0.0
394,0.0
396,0.0
397,1117.4697137018027
448,0.046766062708333337
449,59.90169370141389
450,50.68990772157628
587,1898.0074239676983
588,50.161081808451807
589,59.873341849417979
590,0.046766062708333337
120,7034426.726283714
2,3, 1, 3, 0, 8, 0.00,60.00,Tuesday
7,0.9
314,22.11925713136949
315,0.0
379,0.0
393,0.0
394,0.0
396,0.0
397,1036.2679062161096
448,0.041558260625
449,59.93394064360731
450,50.529200154904049
587,1673.9761100062794
588,50.366224763295338
589,60.0
590,0.041558260625
120,6379113.996022606
2,3, 1, 3, 0, 9, 0.00,60.00,Tuesday
7,0.8
314,19.983367886762609
315,0.0
379,0.0
393,0.0
394,0.0
396,0.0
397,852.2840531062201
448,0.039839685937499997
449,59.95791563442407
450,51.71230340507067
587,1594.6018670964381
588,50.42498492561903
589,58.630496528919497
590,0.039839685937499997
120,6042966.721547178
2,3, 1, 3, 0,10, 0.00,60.00,Tuesday
7,0.6
314,18.087297996303563
315,0.0
379,0.0
393,0.0
394,0.0
396,0.0
397,368.5645774327423
448,0.014998470000000002
449,59.969482864423749
450,54.49930504308742
587,608.3014085270082
588,50.35563621047247
589,55.20572001062328
590,0.014998470000000002
120,2420285.07069723
2,3, 1, 3, 0,11, 0.00,60.00,Tuesday
7,1.1
314,18.671938498198789
315,0.0
379,0.0
393,0.0
394,0.0
396,0.0
397,637.3847733228268
448,0.022497705000000004
449,59.97642175465986
450,51.81407693487276
587,934.6405677072821
588,50.073427713026187
589,57.525632185101489
590,0.022497705000000004
120,3559106.0437462159
2,3, 1, 3, 0,12, 0.00,60.00,Tuesday
7,1.6
314,20.200376468906236
315,0.0
379,0.0
393,0.0
394,0.0
396,0.0
397,853.1452131224318
448,0.029996940000000004
449,59.98293506675114
450,49.55291597011429
587,1268.7245296696456
588,49.88391132617588
589,60.0
590,0.029996940000000004
120,4805008.306810724
2,3, 1, 3, 0,13, 0.00,60.00,Tuesday
7,2.1
314,20.3014682670029
315,0.0
379,0.0
393,0.0
394,0.0
396,0.0
397,808.8179704581934
448,0.029996940000000004
449,59.988094200066289
450,49.69653422557426
587,1274.2404754810598
588,49.839908949166659
589,60.0
590,0.029996940000000004
120,4882465.711731815
2,3, 1, 3, 0,14, 0.00,60.00,Tuesday
7,1.7
314,20.08543864252472
315,0.0
379,0.0
393,0.0
394,0.0
396,0.0
397,847.1452715187307
448,0.03179363171875001
449,59.99177901815102
450,49.80126225539625
587,1351.4218303775635
588,49.833438701982839
589,60.0
590,0.03179363171875001
120,5117118.5893592289
2,3, 1, 3, 0,15, 0.00,60.00,Tuesday
7,1.4
314,20.087693431486433
315,0.0
379,0.0
393,0.0
394,0.0
396,0.0
397,885.25646824369
448,0.033434089375
449,59.99443575022788
450,49.83365294257432
587,1418.8538347577828
588,49.849881551460587
589,60.00000000000001
590,0.033434089375
120,5352673.805128018
2,3, 1, 3, 0,16, 0.00,60.00,Tuesday
7,1.0
314,20.08533825342657
315,0.0
379,0.0
393,0.0
394,0.0
396,0.0
397,892.3833160482561
448,0.033785616015625009
449,59.996282968151458
450,49.85669228023356
587,1430.89121287972
588,49.87028323976737
589,59.99999999999999
590,0.033785616015625009
120,5360008.366366992
2,3, 1, 3, 0,17, 0.00,60.00,Tuesday
7,1.0
314,20.084865751572026
315,0.0
379,0.0
393,0.0
394,0.0
396,0.0
397,881.9302777939604
448,0.033355972343750008
449,59.99751520447204
450,49.84023000286106
587,1410.7047965265501
588,49.88456022855657
589,60.0
590,0.033355972343750008
120,5308937.26749558
2,3, 1, 3, 0,18, 0.00,60.00,Tuesday
7,1.0
314,20.2308469719159
315,0.0
379,0.0
393,0.0
394,0.0
396,0.0
397,804.8150797822703
448,0.029996940000000004
449,59.99830372966421
450,49.69003324862284
587,1270.8237248540656
588,49.86716544654135
589,60.0
590,0.029996940000000004
120,4934965.409474636
2,3, 1, 3, 0,19, 0.00,60.00,Tuesday
7,1.0
314,20.7396660711114
315,0.0
379,0.0
393,0.0
394,0.0
396,0.0
397,487.666428898292
448,0.017998164000000005
449,59.99873323927357
450,53.831160489721828
587,764.3899925045305
588,49.841951690468558
589,55.93677547751672
590,0.017998164000000005
120,3104603.97301631
2,3, 1, 3, 0,20, 0.00,60.00,Tuesday
7,1.0
314,20.368153530964514
315,0.0
379,0.0
393,0.0
394,0.0
396,0.0
397,379.29218800776666
448,0.014998470000000002
449,59.99893713514078
450,54.803163318579887
587,638.2380162061816
588,49.82548489772923
589,54.91444731482843
590,0.014998470000000002
120,2585656.8583422538
2,3, 1, 3, 0,21, 0.00,60.00,Tuesday
7,1.0
314,19.48894013252717
315,0.0
379,0.0
393,0.0
394,0.0
396,0.0
397,0.0
448,0.0
449,59.99905158419422
450,59.99905158419422
587,0.0
588,49.80902993803284
589,49.80902993803284
590,0.0
120,259200.0
2,3, 1, 3, 0,22, 0.00,60.00,Tuesday
7,1.0
314,19.23305806561985
315,0.0
379,0.0
393,0.0
394,0.0
396,0.0
397,0.0
448,0.0
449,59.99905158419422
450,59.99905158419422
587,0.0
588,49.80902993803284
589,49.80902993803284
590,0.0
120,324000.0
2,3, 1, 3, 0,23, 0.00,60.00,Tuesday
7,1.4
314,18.749235510008444
315,0.0
379,0.0
393,0.0
394,0.0
396,0.0
397,0.0
448,0.0
449,59.99905158419422
450,59.99905158419422
587,0.0
588,49.80902993803284
589,49.80902993803284
590,0.0
120,216000.0
2,3, 1, 3, 0,24, 0.00,60.00,Tuesday
7,1.7
314,18.478980469175867
315,0.0
379,0.0
393,0.0
394,0.0
396,0.0
397,0.0
448,0.0
449,59.99905158419422
450,59.99905158419422
587,0.0
588,49.80902993803284
589,49.80902993803284
590,0.0
120,57600.0
2,4, 1, 4, 0, 1, 0.00,60.00,Wednesday
7,2.1
314,17.974216535742675
315,0.0
379,0.0
393,0.0
394,0.0
396,0.0
397,0.0
448,0.0
449,59.99905158419422
450,59.99905158419422
587,0.0
588,49.80902993803284
589,49.80902993803284
590,0.0
120,43200.0
2,4, 1, 4, 0, 2, 0.00,60.00,Wednesday
7,1.4
314,17.787019822854686
315,0.0
379,0.0
393,0.0
394,0.0
396,0.0
397,0.0
448,0.0
449,59.99905158419422
450,59.99905158419422
587,0.0
588,49.80902993803284
589,49.80902993803284
590,0.0
120,43200.0
2,4, 1, 4, 0, 3, 0.00,60.00,Wednesday
7,0.8
314,17.69294292112327
315,0.0
379,0.0
393,0.0
394,0.0
396,0.0
397,0.0
448,0.0
449,59.99905158419422
450,59.99905158419422
587,0.0
588,49.80902993803284
589,49.80902993803284
590,0.0
120,43200.0
2,4, 1, 4, 0, 4, 0.00,60.00,Wednesday
7,0.1
314,17.581967898214584
315,0.0
379,0.0
393,0.0
394,0.0
396,0.0
397,0.0
448,0.0
449,59.99905158419422
450,59.99905158419422
587,0.0
588,49.80902993803284
589,49.80902993803284
590,0.0
120,43200.0
2,4, 1, 4, 0, 5, 0.00,60.00,Wednesday
7,-0.3
314,17.464227846098578
315,0.0
379,0.0
393,0.0
394,0.0
396,0.0
397,0.0
448,0.0
449,59.99905158419422
450,59.99905158419422
587,0.0
588,49.80902993803284
589,49.80902993803284
590,0.0
120,43200.0
2,4, 1, 4, 0, 6, 0.00,60.00,Wednesday
7,-0.7
314,21.562959155660253
315,0.0
379,0.0
393,0.0
394,0.0
396,0.0
397,1032.6638812479127
448,0.03532972933333334
449,59.93073813601999
450,50.07025217616483
587,1460.9516702628716
588,49.89446207448713
589,59.842256556130937
590,0.03532972933333334
120,5302626.012946339
2,4, 1, 4, 0, 7, 0.00,60.00,Wednesday
7,-1.1
314,21.88301393288717
315,0.0
379,0.0
393,0.0
394,0.0
396,0.0
397,1081.3930540672818
448,0.045190702578125008
449,59.88057661408635
450,50.58702397636719
587,1827.0368854445537
588,50.13207179710355
589,59.8138646154231
590,0.045190702578125008
120,6778932.787600393
2,4, 1, 4, 0, 8, 0.00,60.00,Wednesday
7,-1.4
314,22.11809210392529
315,0.0
379,0.0
393,0.0
394,0.0
396,0.0
397,1042.3624180598383
448,0.04187072875
449,59.90961547148561
450,50.51365416728609
587,1697.3484205213267
588,50.30455695837408
589,60.0
590,0.04187072875
120,6463254.313876776
2,4, 1, 4, 0, 9, 0.00,60.00,Wednesday
7,-1.8
314,19.86585953033154
315,0.0
379,0.0
393,0.0
394,0.0
396,0.0
397,900.7842684374348
448,0.04278581397321428
449,59.93599518142408
450,51.82168589349684
587,1711.6721257867503
588,50.39699463616536
589,58.59819185226579
590,0.04278581397321428
120,6464419.652832303
2,4, 1, 4, 0,10, 0.00,60.00,Wednesday
7,-2.1
314,20.106875914747368
315,0.0
379,0.0
393,0.0
394,0.0
396,0.0
397,1156.2102128257409
448,0.0462452825
449,59.959566045033017
450,50.36630671345214
587,1849.4220502155565
588,50.43532230497798
589,60.00000000000001
590,0.0462452825
120,6888319.380776003
2,4, 1, 4, 0,11, 0.00,60.00,Wednesday
7,-2.4
314,20.092333002307155
315,0.0
379,0.0
393,0.0
394,0.0
396,0.0
397,914.2116507155338
448,0.034605844843750007
449,59.97523776734135
450,49.853539594227949
587,1397.6125763201858
588,50.34075864126728
589,60.00000000000001
590,0.034605844843750007
120,5225805.274752669
2,4, 1, 4, 0,12, 0.00,60.00,Wednesday
7,-2.6
314,20.088289432659896
315,0.0
379,0.0
393,0.0
394,0.0
396,0.0
397,932.5005515912967
448,0.035699483281250009
449,59.9837601387691
450,49.94310486691056
587,1460.921133319014
588,50.21240819810924
589,60.0
590,0.035699483281250009
120,5496916.07994845
2,4, 1, 4, 0,13, 0.00,60.00,Wednesday
7,-2.9
314,20.08891886689311
315,0.0
379,0.0
393,0.0
394,0.0
396,0.0
397,935.8996798584743
448,0.03593383437500001
449,59.98943081008828
450,49.96997166773878
587,1480.4476685205093
588,50.146211052136838
589,60.0
590,0.03593383437500001
120,5624811.606673834
2,4, 1, 4, 0,14, 0.00,60.00,Wednesday
7,-3.5
314,20.09206266128238
315,0.0
379,0.0
393,0.0
394,0.0
396,0.0
397,1010.255505382325
448,0.0395272178125
449,59.99326953354885
450,50.15079570292011
587,1629.057220936919
588,50.14279038475404
589,59.99999999999999
590,0.0395272178125
120,6116605.995372908
2,4, 1, 4, 0,15, 0.00,60.00,Wednesday
7,-4.2
314,20.096458306360224
315,0.0
379,0.0
393,0.0
394,0.0
396,0.0
397,1059.4145587396856
448,0.0420269628125
449,59.99586779671634
450,50.27845197905726
587,1722.2954465141
588,50.19852962915402
589,59.99999999999999
590,0.0420269628125
120,6445063.60745076
2,4, 1, 4, 0,16, 0.00,60.00,Wednesday
7,-4.8
314,20.094337231397547
315,0.0
379,0.0
393,0.0
394,0.0
396,0.0
397,1103.6473994178154
448,0.04437047375
449,59.99753650311424
450,50.39904788189416
587,1802.4378999576088
588,50.28429621901334
589,60.00000000000001
590,0.04437047375
120,6697576.439847392
2,4, 1, 4, 0,17, 0.00,60.00,Wednesday
7,-5.1
314,20.09122127161499
315,0.0
379,0.0
393,0.0
394,0.0
396,0.0
397,1109.1037481291935
448,0.04476105890625
449,59.998556680249858
450,50.42095785342426
587,1803.4302180185375
588,50.363846589542628
589,59.999999999999989
590,0.04476105890625
120,6722748.784866735
2,4, 1, 4, 0,18, 0.00,60.00,Wednesday
7,-5.5
314,20.085640225527784
315,0.0
379,0.0
393,0.0
394,0.0
396,0.0
397,1004.5131266186957
448,0.03944910078125
449,59.99913173058881
450,50.1602671127889
587,1590.1091922215073
588,50.359607164708098
589,60.00000000000001
590,0.03944910078125
120,6084393.091997426
2,4, 1, 4, 0,19, 0.00,60.00,Wednesday
7,-5.8
314,20.45212146167431
315,0.0
379,0.0
393,0.0
394,0.0
396,0.0
397,482.1088943820737
448,0.017998164000000005
449,59.99938973903417
450,53.80988088159613
587,731.9822260000959
588,50.272926465686129
589,56.109152137036847
590,0.017998164000000005
120,2987936.0136003454
2,4, 1, 4, 0,20, 0.00,60.00,Wednesday
7,-5.9
314,20.763516558102027
315,0.0
379,0.0
393,0.0
394,0.0
396,0.0
397,597.0568890760487
448,0.022497705000000004
449,59.99951548210057
450,52.29115451124454
587,925.1828655086485
588,50.16904446563004
589,57.54577014053977
590,0.022497705000000004
120,3618658.315831135
2,4, 1, 4, 0,21, 0.00,60.00,Wednesday
7,-6.1
314,19.2455656662531
315,0.0
379,0.0
393,0.0
394,0.0
396,0.0
397,0.0
448,0.0
449,59.99958242616194
450,59.99958242616194
587,0.0
588,50.115323664193258
589,50.115323664193258
590,0.0
120,259200.0
2,4, 1, 4, 0,22, 0.00,60.00,Wednesday
7,-6.2
314,18.821004017054187
315,0.0
379,0.0
393,0.0
394,0.0
396,0.0
397,0.0
448,0.0
449,59.999582426161939
450,59.999582426161939
587,0.0
588,50.115323664193258
589,50.115323664193258
590,0.0
120,324000.0
2,4, 1, 4, 0,23, 0.00,60.00,Wednesday
7,-6.2
314,18.34385490571406
315,0.0
379,0.0
393,0.0
394,0.0
396,0.0
397,0.0
448,0.0
449,59.999582426161939
450,59.999582426161939
587,0.0
588,50.115323664193258
589,50.115323664193258
590,0.0
120,216000.0
2,4, 1, 4, 0,24, 0.00,60.00,Wednesday
7,-6.3
314,17.87960069681224
315,0.0
379,0.0
393,0.0
394,0.0
396,0.0
397,0.0
448,0.0
449,59.999582426161939
450,59.999582426161939
587,0.0
588,50.115323664193258
589,50.115323664193258
590,0.0
120,57600.0
2,5, 1, 5, 0, 1, 0.00,60.00,Thursday
7,-6.3
314,17.399615817067685
315,0.0
379,0.0
393,0.0
394,0.0
396,0.0
397,0.0
448,0.0
449,59.999582426161939
450,59.999582426161939
587,0.0
588,50.115323664193258
589,50.115323664193258
590,0.0
120,43200.0
2,5, 1, 5, 0, 2, 0.00,60.00,Thursday
7,-6.4
314,17.23941801464902
315,0.0
379,0.0
393,0.0
394,0.0
396,0.0
397,0.0
448,0.0
449,59.999582426161939
450,59.999582426161939
587,0.0
588,50.115323664193258
589,50.115323664193258
590,0.0
120,43200.0
2,5, 1, 5, 0, 3, 0.00,60.00,Thursday
7,-6.5
314,17.12050770581604
315,0.0
379,0.0
393,0.0
394,0.0
396,0.0
397,0.0
448,0.0
449,59.999582426161939
450,59.999582426161939
587,0.0
588,50.115323664193258
589,50.115323664193258
590,0.0
120,43200.0
2,5, 1, 5, 0, 4, 0.00,60.00,Thursday
7,-6.6
314,16.991172966421673
315,0.0
379,0.0
393,0.0
394,0.0
396,0.0
397,0.0
448,0.0
449,59.999582426161939
450,59.999582426161939
587,0.0
588,50.115323664193258
589,50.115323664193258
590,0.0
120,43200.0
2,5, 1, 5, 0, 5, 0.00,60.00,Thursday
7,-6.4
314,16.876461659326315
315,0.0
379,0.0
393,0.0
394,0.0
396,0.0
397,0.0
448,0.0
449,59.999582426161939
450,59.999582426161939
587,0.0
588,50.115323664193258
589,50.115323664193258
590,0.0
120,43200.0
2,5, 1, 5, 0, 6, 0.00,60.00,Thursday
7,-6.3
314,21.31102301573396
315,0.0
379,0.0
393,0.0
394,0.0
396,0.0
397,1222.7441201403067
448,0.042969946975446437
449,59.95542164973136
450,50.387295508457388
587,1741.411736018232
588,50.1846674353366
589,59.88969101423922
590,0.042969946975446437
120,6312282.249665637
2,5, 1, 5, 0, 7, 0.00,60.00,Thursday
7,-6.1
314,21.486868144537725
315,0.0
379,0.0
393,0.0
394,0.0
396,0.0
397,1153.254453809979
448,0.049994899999999998
449,59.94949307556904
450,50.81516548653207
587,1995.4739696660672
588,50.40745823102208
589,59.953498774171908