Program Version,EnergyPlus, Version 8.9.0-40101eaafd, YMD=2018.12.30 11:37
1,5,Environment Title[],Latitude[deg],Longitude[deg],Time Zone[],Elevation[m]
2,8,Day of Simulation[],Month[],Day of Month[],DST Indicator[1=yes 0=no],Hour[],StartMinute[],EndMinute[],DayType
3,5,Cumulative Day of Simulation[],Month[],Day of Month[],DST Indicator[1=yes 0=no],DayType  ! When Daily Report Variables Requested
4,2,Cumulative Days of Simulation[],Month[]  ! When Monthly Report Variables Requested
5,1,Cumulative Days of Simulation[] ! When Run Period Report Variables Requested
6,1,Calendar Year of Simulation[] ! When Annual Report Variables Requested
7,1,Environment,Site Outdoor Air Drybulb Temperature [C] !Hourly
314,1,ZONE ONE,Zone Air Temperature [C] !Hourly
315,1,ERV_1_HX,Heat Exchanger Total Heating Rate [W] !Hourly
379,1,ERV_1_FANSUPPLY,Fan Electric Power [W] !Hourly
393,1,ERV_1_FANSUPPLY,Fan Air Mass Flow Rate [kg/s] !Hourly
394,1,ERV_1_FANEXHAUST,Fan Electric Power [W] !Hourly
396,1,ERV_1_FANEXHAUST,Fan Air Mass Flow Rate [kg/s] !Hourly
397,1,RADIATOR,Baseboard Total Heating Rate [W] !Hourly
448,1,RADIATOR,Baseboard Hot Water Mass Flow Rate [kg/s] !Hourly
449,1,RADIATOR,Baseboard Water Inlet Temperature [C] !Hourly
450,1,RADIATOR,Baseboard Water Outlet Temperature [C] !Hourly
587,1,DISTRICT HEATING 1,District Heating Rate [W] !Hourly
588,1,DISTRICT HEATING 1,District Heating Inlet Temperature [C] !Hourly
589,1,DISTRICT HEATING 1,District Heating Outlet Temperature [C] !Hourly
590,1,DISTRICT HEATING 1,District Heating Mass Flow Rate [kg/s] !Hourly
120,1,DistrictHeating:Facility [J] !Hourly
End of Data Dictionary
1,ANNUAL SIM 1,  59.65,  17.95,   1.00,  61.00
2,1, 1,27, 0, 1, 0.00,60.00,Friday
7,-17.0
314,16.520382927461904
315,0.0
379,0.0
393,0.0
394,0.0
396,0.0
397,0.0
448,0.0
449,59.87341682327183
450,59.87341682327183
587,0.0
588,50.028219407538937
589,50.028219407538937
590,0.0
120,43200.0
2,1, 1,27, 0, 2, 0.00,60.00,Friday
7,-17.0
314,16.329066185594138
315,0.0
379,0.0
393,0.0
394,0.0
396,0.0
397,0.0
448,0.0
449,59.87341682327183
450,59.87341682327183
587,0.0
588,50.028219407538937
589,50.028219407538937
590,0.0
120,43200.0
2,1, 1,27, 0, 3, 0.00,60.00,Friday
7,-17.0
314,16.263422933743965
315,0.0
379,0.0
393,0.0
394,0.0
396,0.0
397,0.0
448,0.0
449,59.87341682327183
450,59.87341682327183
587,0.0
588,50.028219407538937
589,50.028219407538937
590,0.0
120,43200.0
2,1, 1,27, 0, 4, 0.00,60.00,Friday
7,-17.0
314,16.13681761479839
315,0.0
379,0.0
393,0.0
394,0.0
396,0.0
397,0.0
448,0.0
449,59.87341682327183
450,59.87341682327183
587,0.0
588,50.028219407538937
589,50.028219407538937
590,0.0
120,43200.0
2,1, 1,27, 0, 5, 0.00,60.00,Friday
7,-16.9
314,15.92455818983955
315,0.0
379,0.0
393,0.0
394,0.0
396,0.0
397,0.0
448,0.0
449,59.87341682327183
450,59.87341682327183
587,0.0
588,50.028219407538937
589,50.028219407538937
590,0.0
120,43200.0
2,1, 1,27, 0, 6, 0.00,60.00,Friday
7,-16.7
314,19.603113976067438
315,0.0
379,0.0
393,0.0
394,0.0
396,0.0
397,1102.5635157152471
448,0.03618020347355769
449,59.85665810825614
450,49.58100854360268
587,1496.7525803429198
588,49.96444504784125
589,59.90208756725794
590,0.03618020347355769
120,5431509.289234512
2,1, 1,27, 0, 7, 0.00,60.00,Friday
7,-16.6
314,20.02875906888997
315,0.0
379,0.0
393,0.0
394,0.0
396,0.0
397,971.4975045788244
448,0.03710558984375
449,59.902946371883768
450,49.76851224948227
587,1563.0607177994611
588,49.92380438489326
589,60.0
590,0.03710558984375
120,5828618.58407806
2,1, 1,27, 0, 8, 0.00,60.00,Friday
7,-15.8
314,20.090353470976085
315,0.0
379,0.0
393,0.0
394,0.0
396,0.0
397,878.3784297213107
448,0.0323404509375
449,59.93477322530592
450,49.61304519550395
587,1372.5086421916267
588,49.84939383585695
589,60.0
590,0.0323404509375
120,5293831.111889856
2,1, 1,27, 0, 9, 0.00,60.00,Friday
7,-15.0
314,17.99345324511663
315,0.0
379,0.0
393,0.0
394,0.0
396,0.0
397,1151.8106893921354
448,0.0499949
449,59.83124558311739
450,50.07169561646201
587,1999.9999999999998
588,49.927666880701149
589,59.49576514293459
590,0.0499949
120,7502400.0
2,1, 1,27, 0,10, 0.00,60.00,Friday
7,-14.2
314,17.850067678741217
315,0.0
379,0.0
393,0.0
394,0.0
396,0.0
397,1292.722495011479
448,0.0499949
449,59.68220719982481
450,49.73521615291415
587,2000.0
588,49.908417200859307
589,59.476524273571119
590,0.0499949
120,7430400.0
2,1, 1,27, 0,11, 0.00,60.00,Friday
7,-13.1
314,18.427190435211967
315,0.0
379,0.0
393,0.0
394,0.0
396,0.0
397,1274.108318108887
448,0.0499949
449,59.58086502449162
450,49.84753665774489
587,2000.0
588,49.883396164671569
589,59.45151468944263
590,0.0499949
120,7394400.0
2,1, 1,27, 0,12, 0.00,60.00,Friday
7,-12.1
314,18.843716077836058
315,0.0
379,0.0
393,0.0
394,0.0
396,0.0
397,1251.2306303379664
448,0.0499949
449,59.53087111849255
450,49.95463939443646
587,2000.0
588,49.92184796458929
589,59.48994889009407
590,0.0499949
120,7437600.0
2,1, 1,27, 0,13, 0.00,60.00,Friday
7,-11.0
314,19.0408894075875
315,0.0
379,0.0
393,0.0
394,0.0
396,0.0
397,1228.842057368706
448,0.0499949
449,59.53108427173241
450,50.035112071005347
587,2000.0
588,49.991735830675079
589,59.55980476887905
590,0.0499949
120,7495200.0
2,1, 1,27, 0,14, 0.00,60.00,Friday
7,-10.7
314,18.948864370496666
315,0.0
379,0.0
393,0.0
394,0.0
396,0.0
397,1224.5923825715563
448,0.0499949
449,59.559481453663
450,50.107435449248239
587,2000.0
588,50.058735339160559
589,59.626746729747697
590,0.0499949
120,7452000.0
2,1, 1,27, 0,15, 0.00,60.00,Friday
7,-10.5
314,18.851962699089609
315,0.0
379,0.0
393,0.0
394,0.0
396,0.0
397,1225.0480840480695
448,0.0499949
449,59.6024606902636
450,50.12558093506264
587,2000.0
588,50.114700421176909
589,59.682660582999037
590,0.0499949
120,7444800.0
2,1, 1,27, 0,16, 0.00,60.00,Friday
7,-10.2
314,18.80097504879781
315,0.0
379,0.0
393,0.0
394,0.0
396,0.0
397,1229.8834969141735
448,0.0499949
449,59.647005115768688
450,50.1380323941183
587,2000.0
588,50.15218998352866
589,59.72011582883163
590,0.0499949
120,7408800.0
2,1, 1,27, 0,17, 0.00,60.00,Friday
7,-9.8
314,18.859394060359674
315,0.0
379,0.0
393,0.0
394,0.0
396,0.0
397,1232.1829414388335
448,0.0499949
449,59.68613279716343
450,50.15535440985249
587,2000.0
588,50.17959097041405
589,59.747491734051759
590,0.0499949
120,7430400.0
2,1, 1,27, 0,18, 0.00,60.00,Friday
7,-9.4
314,19.35099963006305
315,0.0
379,0.0
393,0.0
394,0.0
396,0.0
397,1237.2968418425162
448,0.0499949
449,59.7213451023758
450,50.23066983244456
587,2000.0
588,50.21211207815038
589,59.779983073573109
590,0.0499949
120,7560000.0
2,1, 1,27, 0,19, 0.00,60.00,Friday
7,-9.0
314,20.785578587008879
315,0.0
379,0.0
393,0.0
394,0.0
396,0.0
397,851.295516905633
448,0.03023129109375
449,59.781457910897199
450,49.59554552456958
587,1247.1184242877366
588,50.1328899973241
589,60.0
590,0.03023129109375
120,4842426.327435852
2,1, 1,27, 0,20, 0.00,60.00,Friday
7,-8.0
314,21.00618254523183
315,0.0
379,0.0
393,0.0
394,0.0
396,0.0
397,791.3097285855506
448,0.029996940000000004
449,59.84758909575384
450,49.86851018273786
587,1248.2384639218026
588,50.0473559640558
589,60.0
590,0.029996940000000004
120,4781658.470118489
2,1, 1,27, 0,21, 0.00,60.00,Friday
7,-7.1
314,18.821871831109225
315,0.0
379,0.0
393,0.0
394,0.0
396,0.0
397,0.0
448,0.0
449,59.8733805652582
450,59.8733805652582
587,0.0
588,50.028152073505129
589,50.028152073505129
590,0.0
120,259200.0
2,1, 1,27, 0,22, 0.00,60.00,Friday
7,-6.1
314,18.32653616296526
315,0.0
379,0.0
393,0.0
394,0.0
396,0.0
397,0.0
448,0.0
449,59.873380565258219
450,59.873380565258219
587,0.0
588,50.02815207350513
589,50.02815207350513
590,0.0
120,324000.0
2,1, 1,27, 0,23, 0.00,60.00,Friday
7,-5.7
314,17.8747807139336
315,0.0
379,0.0
393,0.0
394,0.0
396,0.0
397,0.0
448,0.0
449,59.873380565258219
450,59.873380565258219
587,0.0
588,50.02815207350513
589,50.02815207350513
590,0.0
120,216000.0
2,1, 1,27, 0,24, 0.00,60.00,Friday
7,-5.4
314,17.45426175579229
315,0.0
379,0.0
393,0.0
394,0.0
396,0.0
397,0.0
448,0.0
449,59.873380565258219
450,59.873380565258219
587,0.0
588,50.02815207350513
589,50.02815207350513
590,0.0
120,57600.0
End of Data
 Number of Records Written=         384
