Program Version,EnergyPlus, Version 8.9.0-40101eaafd, YMD=2019.01.10 17:48
1,5,Environment Title[],Latitude[deg],Longitude[deg],Time Zone[],Elevation[m]
2,8,Day of Simulation[],Month[],Day of Month[],DST Indicator[1=yes 0=no],Hour[],StartMinute[],EndMinute[],DayType
3,5,Cumulative Day of Simulation[],Month[],Day of Month[],DST Indicator[1=yes 0=no],DayType  ! When Daily Report Variables Requested
4,2,Cumulative Days of Simulation[],Month[]  ! When Monthly Report Variables Requested
5,1,Cumulative Days of Simulation[] ! When Run Period Report Variables Requested
6,1,Calendar Year of Simulation[] ! When Annual Report Variables Requested
7,1,Environment,Site Outdoor Air Drybulb Temperature [C] !Hourly
314,1,ZONE ONE,Zone Air Temperature [C] !Hourly
315,1,ERV_1_HX,Heat Exchanger Total Heating Rate [W] !Hourly
379,1,ERV_1_FANSUPPLY,Fan Electric Power [W] !Hourly
393,1,ERV_1_FANSUPPLY,Fan Air Mass Flow Rate [kg/s] !Hourly
394,1,ERV_1_FANEXHAUST,Fan Electric Power [W] !Hourly
396,1,ERV_1_FANEXHAUST,Fan Air Mass Flow Rate [kg/s] !Hourly
397,1,RADIATOR,Baseboard Total Heating Rate [W] !Hourly
448,1,RADIATOR,Baseboard Hot Water Mass Flow Rate [kg/s] !Hourly
449,1,RADIATOR,Baseboard Water Inlet Temperature [C] !Hourly
450,1,RADIATOR,Baseboard Water Outlet Temperature [C] !Hourly
587,1,DISTRICT HEATING 1,District Heating Rate [W] !Hourly
588,1,DISTRICT HEATING 1,District Heating Inlet Temperature [C] !Hourly
589,1,DISTRICT HEATING 1,District Heating Outlet Temperature [C] !Hourly
590,1,DISTRICT HEATING 1,District Heating Mass Flow Rate [kg/s] !Hourly
120,1,DistrictHeating:Facility [J] !Hourly
End of Data Dictionary
1,ANNUAL SIM 1,  59.65,  17.95,   1.00,  61.00
2,1, 1, 1, 0, 1, 0.00,60.00,Sunday
7,4.0
314,18.26282414077218
315,0.0
379,0.0
393,0.0
394,0.0
396,0.0
397,0.0
448,0.0
449,59.99929412747067
450,59.99929412747067
587,0.0
588,49.81568022908363
589,49.81568022908363
590,0.0
120,43200.0
2,1, 1, 1, 0, 2, 0.00,60.00,Sunday
7,5.3
314,18.17281208254691
315,0.0
379,0.0
393,0.0
394,0.0
396,0.0
397,0.0
448,0.0
449,59.99929412747067
450,59.99929412747067
587,0.0
588,49.81568022908363
589,49.81568022908363
590,0.0
120,43200.0
2,1, 1, 1, 0, 3, 0.00,60.00,Sunday
7,6.2
314,18.158779561549495
315,0.0
379,0.0
393,0.0
394,0.0
396,0.0
397,0.0
448,0.0
449,59.99929412747067
450,59.99929412747067
587,0.0
588,49.81568022908363
589,49.81568022908363
590,0.0
120,43200.0
2,1, 1, 1, 0, 4, 0.00,60.00,Sunday
7,6.8
314,18.13523077115096
315,0.0
379,0.0
393,0.0
394,0.0
396,0.0
397,0.0
448,0.0
449,59.99929412747067
450,59.99929412747067
587,0.0
588,49.81568022908363
589,49.81568022908363
590,0.0
120,43200.0
2,1, 1, 1, 0, 5, 0.00,60.00,Sunday
7,7.2
314,18.096293222055189
315,0.0
379,0.0
393,0.0
394,0.0
396,0.0
397,0.0
448,0.0
449,59.99929412747067
450,59.99929412747067
587,0.0
588,49.81568022908363
589,49.81568022908363
590,0.0
120,43200.0
2,1, 1, 1, 0, 6, 0.00,60.00,Sunday
7,7.5
314,21.853619236389734
315,0.0
379,0.0
393,0.0
394,0.0
396,0.0
397,817.1269332365385
448,0.02881960474330357
449,59.941528892390547
450,52.246725377878039
587,1192.1307185547814
588,49.8983923226923
589,57.71244063600953
590,0.02881960474330357
120,4334870.586797212
2,1, 1, 1, 0, 7, 0.00,60.00,Sunday
7,7.5
314,22.150814443040848
315,0.0
379,0.0
393,0.0
394,0.0
396,0.0
397,798.6894989571161
448,0.029996940000000004
449,59.95179358576821
450,49.97062722480918
587,1259.8030267904505
588,49.9550805462706
589,60.0
590,0.029996940000000004
120,4600090.896445622
2,1, 1, 1, 0, 8, 0.00,60.00,Sunday
7,6.7
314,21.947103074548264
315,0.0
379,0.0
393,0.0
394,0.0
396,0.0
397,791.5050393247709
448,0.029996940000000004
449,59.96636752602571
450,50.018909249780197
587,1255.767058819532
588,49.98727637315778
589,59.99999999999999
590,0.029996940000000004
120,4700761.411750315
2,1, 1, 1, 0, 9, 0.00,60.00,Sunday
7,6.0
314,21.74191696142263
315,0.0
379,0.0
393,0.0
394,0.0
396,0.0
397,794.2323944582853
448,0.029996940000000004
449,59.97653541912093
450,49.97604861121188
587,1252.9524802527812
588,50.00973349629155
589,60.0
590,0.029996940000000004
120,4777028.928910012
2,1, 1, 1, 0,10, 0.00,60.00,Sunday
7,5.2
314,19.60294726658613
315,0.0
379,0.0
393,0.0
394,0.0
396,0.0
397,0.0
448,0.0
449,59.9805061719038
450,59.9805061719038
587,0.0
588,50.015094080647717
589,50.015094080647717
590,0.0
120,252000.0
2,1, 1, 1, 0,11, 0.00,60.00,Sunday
7,5.2
314,19.185008764927426
315,0.0
379,0.0
393,0.0
394,0.0
396,0.0
397,407.51133593376178
448,0.014998470000000002
449,59.98175249922973
450,54.6108476458256
587,629.9828922326361
588,49.96858244205572
589,54.99169136760184
590,0.014998470000000002
120,2498338.41203749
2,1, 1, 1, 0,12, 0.00,60.00,Sunday
7,5.2
314,19.395468786952884
315,0.0
379,0.0
393,0.0
394,0.0
396,0.0
397,401.1722914066206
448,0.014998470000000002
449,59.98531999785952
450,54.671007612003368
587,636.0040390863235
588,49.85124457626676
589,54.922385839521009
590,0.014998470000000002
120,2541614.5407107647
2,1, 1, 1, 0,13, 0.00,60.00,Sunday
7,5.2
314,20.581266570445984
315,0.0
379,0.0
393,0.0
394,0.0
396,0.0
397,750.8049592748274
448,0.02682018072916667
449,59.98842937384591
450,51.462021901933749
587,1140.8438706314116
588,49.82631993693845
589,58.30471519181148
590,0.02682018072916667
120,4409437.934273082
2,1, 1, 1, 0,14, 0.00,60.00,Sunday
7,4.6
314,20.977027777043018
315,0.0
379,0.0
393,0.0
394,0.0
396,0.0
397,953.8489196711246
448,0.0385898134375
449,59.992191787899887
450,50.22908132414565
587,1624.581206366684
588,49.93468535880858
589,60.0
590,0.0385898134375
120,6114892.342920063
2,1, 1, 1, 0,15, 0.00,60.00,Sunday
7,4.1
314,20.448575309362629
315,0.0
379,0.0
393,0.0
394,0.0
396,0.0
397,767.1381351205965
448,0.029996940000000004
449,59.99479045725232
450,49.850626613544708
587,1255.803417993347
588,49.986986326255699
589,60.0
590,0.029996940000000004
120,4780092.30477605
2,1, 1, 1, 0,16, 0.00,60.00,Sunday
7,3.5
314,20.311194177371239
315,0.0
379,0.0
393,0.0
394,0.0
396,0.0
397,797.5530477823736
448,0.029996940000000004
449,59.99636542535529
450,49.75966911750706
587,1260.722896641861
588,49.94774252308941
589,60.0
590,0.029996940000000004
120,4761802.4279106999
2,1, 1, 1, 0,17, 0.00,60.00,Sunday
7,3.2
314,19.005508268738234
315,0.0
379,0.0
393,0.0
394,0.0
396,0.0
397,0.0
448,0.0
449,59.99698047991175
450,59.99698047991175
587,0.0
588,49.9269766909139
589,49.9269766909139
590,0.0
120,230400.0
2,1, 1, 1, 0,18, 0.00,60.00,Sunday
7,2.9
314,18.87286429656918
315,0.0
379,0.0
393,0.0
394,0.0
396,0.0
397,0.0
448,0.0
449,59.99698047991175
450,59.99698047991175
587,0.0
588,49.9269766909139
589,49.9269766909139
590,0.0
120,324000.0
2,1, 1, 1, 0,19, 0.00,60.00,Sunday
7,2.6
314,19.352442349271738
315,0.0
379,0.0
393,0.0
394,0.0
396,0.0
397,83.14857124398726
448,0.0029996940000000008
449,59.9970819428188
450,58.931721478925229
587,126.44813664741692
588,49.9095643971621
589,50.9177883720451
590,0.0029996940000000008
120,757613.2919307009
2,1, 1, 1, 0,20, 0.00,60.00,Sunday
7,2.5
314,20.57623319925566
315,0.0
379,0.0
393,0.0
394,0.0
396,0.0
397,381.0151857001442
448,0.013331973333333334
449,59.99732115340606
450,55.37436177185652
587,563.6724494075193
588,49.88640950223405
589,54.38081260584809
590,0.013331973333333334
120,2281220.8178670697
2,1, 1, 1, 0,21, 0.00,60.00,Sunday
7,2.4
314,19.365417996758994
315,0.0
379,0.0
393,0.0
394,0.0
396,0.0
397,0.0
448,0.0
449,59.9975179175446
450,59.9975179175446
587,0.0
588,49.87240030059439
589,49.87240030059439
590,0.0
120,216000.0
2,1, 1, 1, 0,22, 0.00,60.00,Sunday
7,2.3
314,19.10366752999053
315,0.0
379,0.0
393,0.0
394,0.0
396,0.0
397,0.0
448,0.0
449,59.9975179175446
450,59.9975179175446
587,0.0
588,49.87240030059439
589,49.87240030059439
590,0.0
120,244800.0
2,1, 1, 1, 0,23, 0.00,60.00,Sunday
7,2.3
314,18.721889302642148
315,0.0
379,0.0
393,0.0
394,0.0
396,0.0
397,0.0
448,0.0
449,59.9975179175446
450,59.9975179175446
587,0.0
588,49.87240030059439
589,49.87240030059439
590,0.0
120,187200.0
2,1, 1, 1, 0,24, 0.00,60.00,Sunday
7,2.2
314,18.470642885299698
315,0.0
379,0.0
393,0.0
394,0.0
396,0.0
397,0.0
448,0.0
449,59.9975179175446
450,59.9975179175446
587,0.0
588,49.87240030059439
589,49.87240030059439
590,0.0
120,86400.0
2,2, 1, 2, 0, 1, 0.00,60.00,Monday
7,2.2
314,17.97283928349199
315,0.0
379,0.0
393,0.0
394,0.0
396,0.0
397,0.0
448,0.0
449,59.9975179175446
450,59.9975179175446
587,0.0
588,49.87240030059439
589,49.87240030059439
590,0.0
120,43200.0
2,2, 1, 2, 0, 2, 0.00,60.00,Monday
7,2.2
314,17.804622346210278
315,0.0
379,0.0
393,0.0
394,0.0
396,0.0
397,0.0
448,0.0
449,59.9975179175446
450,59.9975179175446
587,0.0
588,49.87240030059439
589,49.87240030059439
590,0.0
120,43200.0
2,2, 1, 2, 0, 3, 0.00,60.00,Monday
7,2.1
314,17.70768821031036
315,0.0
379,0.0
393,0.0
394,0.0
396,0.0
397,0.0
448,0.0
449,59.9975179175446
450,59.9975179175446
587,0.0
588,49.87240030059439
589,49.87240030059439
590,0.0
120,43200.0
2,2, 1, 2, 0, 4, 0.00,60.00,Monday
7,2.1
314,17.641759984836879
315,0.0
379,0.0
393,0.0
394,0.0
396,0.0
397,0.0
448,0.0
449,59.9975179175446
450,59.9975179175446
587,0.0
588,49.87240030059439
589,49.87240030059439
590,0.0
120,43200.0
2,2, 1, 2, 0, 5, 0.00,60.00,Monday
7,2.1
314,17.56333791524037
315,0.0
379,0.0
393,0.0
394,0.0
396,0.0
397,0.0
448,0.0
449,59.9975179175446
450,59.9975179175446
587,0.0
588,49.87240030059439
589,49.87240030059439
590,0.0
120,43200.0
2,2, 1, 2, 0, 6, 0.00,60.00,Monday
7,2.0
314,21.717495583768206
315,0.0
379,0.0
393,0.0
394,0.0
396,0.0
397,1027.8487406073768
448,0.03532972933333334
449,59.93651959671822
450,50.11348017128867
587,1455.725857192315
588,49.952294841937959
589,59.85839432977202
590,0.03532972933333334
120,5283813.085892336
2,2, 1, 2, 0, 7, 0.00,60.00,Monday
7,2.0
314,21.956253668391633
315,0.0
379,0.0
393,0.0
394,0.0
396,0.0
397,1028.8734292551562
448,0.042964367187500008
449,59.89421274925036
450,50.527108635637549
587,1733.70641964791
588,50.1737455818995
589,59.84120008398028
590,0.042964367187500008
120,6442943.110732475
2,2, 1, 2, 0, 8, 0.00,60.00,Monday
7,2.0
314,22.110664501732747
315,0.0
379,0.0
393,0.0
394,0.0
396,0.0
397,967.3847544666914
448,0.038121111250000009
449,59.917165220252268
450,50.332840232407878
587,1551.2219880325893
588,50.26766361372209
589,60.0
590,0.038121111250000009
120,5937199.1569173219
2,2, 1, 2, 0, 9, 0.00,60.00,Monday
7,1.9
314,20.00391095975224
315,0.0
379,0.0
393,0.0
394,0.0
396,0.0
397,769.4906435322978
448,0.03564740526041667
449,59.93761284816549
450,51.7723619168283
587,1441.853713810263
588,50.296477311936609
589,58.36221785004972
590,0.03564740526041667
120,5493073.369716945
2,2, 1, 2, 0,10, 0.00,60.00,Monday
7,1.9
314,18.35818350005382
315,0.0
379,0.0
393,0.0
394,0.0
396,0.0
397,373.27801288605846
448,0.014998470000000002
449,59.951198181783279
450,54.510673787248439
587,616.512404951761
588,50.21656457851891
589,55.13217759056779
590,0.014998470000000002
120,2449844.65782634
2,2, 1, 2, 0,11, 0.00,60.00,Monday
7,1.9
314,18.662451147990859
315,0.0
379,0.0
393,0.0
394,0.0
396,0.0
397,503.8080549411351
448,0.017998164000000005
449,59.961734986016519
450,53.46607710979714
587,753.2143242653768
588,49.990171803559139
589,55.995839838597067
590,0.017998164000000005
120,2905971.5673553568
2,2, 1, 2, 0,12, 0.00,60.00,Monday
7,1.9
314,19.65522185649308
315,0.0
379,0.0
393,0.0
394,0.0
396,0.0
397,683.929744759022
448,0.023997552000000007
449,59.96977544566613
450,51.51739658549724
587,1019.1802178788846
588,49.84678168928164
589,57.97316207581046
590,0.023997552000000007
120,3906648.7843639848
2,2, 1, 2, 0,13, 0.00,60.00,Monday
7,1.9
314,20.019740974583749
315,0.0
379,0.0
393,0.0
394,0.0
396,0.0
397,807.1421500843522
448,0.031285871015625
449,59.97864244350281
450,49.63136938351692
587,1336.062065020207
588,49.78549803026597
589,60.0
590,0.031285871015625
120,5105023.434072745
2,2, 1, 2, 0,14, 0.00,60.00,Monday
7,1.6
314,20.077687608994699
315,0.0
379,0.0
393,0.0
394,0.0
396,0.0
397,824.4336511146676
448,0.030856227343750009
449,59.98523598200078
450,49.71725166202261
587,1319.7035401098012
588,49.77041163729053
589,60.0
590,0.030856227343750009
120,5002932.744395284
2,2, 1, 2, 0,15, 0.00,60.00,Monday
7,1.3
314,20.079448875828374
315,0.0
379,0.0
393,0.0
394,0.0
396,0.0
397,858.0520065822182
448,0.0323404509375
449,59.98988878261217
450,49.779260228745759
587,1381.2285335783952
588,49.78487296287633
589,60.0
590,0.0323404509375
120,5217222.720882223
2,2, 1, 2, 0,16, 0.00,60.00,Monday
7,1.0
314,20.082142337813207
315,0.0
379,0.0
393,0.0
394,0.0
396,0.0
397,886.295783916322
448,0.033668440468750008
449,59.99319177981034
450,49.857403621703948
587,1433.2493998458249
588,49.81825123477219
589,60.00000000000001
590,0.033668440468750008
120,5368497.83944497
2,2, 1, 2, 0,17, 0.00,60.00,Monday
7,0.9
314,20.075954761691017
315,0.0
379,0.0
393,0.0
394,0.0
396,0.0
397,877.5194529539002
448,0.033355972343750008
449,59.99544859882328
450,49.85619764912186
587,1415.1520316532208
588,49.85265590235742
589,60.00000000000001
590,0.033355972343750008
120,5324947.313951595
2,2, 1, 2, 0,18, 0.00,60.00,Monday
7,0.7
314,20.182038412156879
315,0.0
379,0.0
393,0.0
394,0.0
396,0.0
397,799.465324108126
448,0.029996940000000004
449,59.9968912408997
450,49.710912871505957
587,1272.821464187042
588,49.8512288584407
589,60.0
590,0.029996940000000004
120,4942157.271073352
2,2, 1, 2, 0,19, 0.00,60.00,Monday
7,0.6
314,20.6870328492454
315,0.0
379,0.0
393,0.0
394,0.0
396,0.0
397,405.30102344804205
448,0.014998470000000002
449,59.99767151527151
450,54.875382753205
587,637.3526112417237
588,49.835937407630947
589,54.91783665250897
590,0.014998470000000002
120,2647269.4004702058
2,2, 1, 2, 0,20, 0.00,60.00,Monday
7,0.6
314,20.813734933858883
315,0.0
379,0.0
393,0.0
394,0.0
396,0.0
397,405.55937427333859
448,0.014998470000000002
449,59.998069522707
450,54.89508851519483
587,637.2277114377919
588,49.838620374110167
589,54.91952325231245
590,0.014998470000000002
120,2582019.761176051
2,2, 1, 2, 0,21, 0.00,60.00,Monday
7,0.6
314,19.28670855494917
315,0.0
379,0.0
393,0.0
394,0.0
396,0.0
397,0.0
448,0.0
449,59.99819812198353
450,59.99819812198353
587,0.0
588,49.83880398219908
589,49.83880398219908
590,0.0
120,259200.0
2,2, 1, 2, 0,22, 0.00,60.00,Monday
7,0.6
314,19.06429946102341
315,0.0
379,0.0
393,0.0
394,0.0
396,0.0
397,0.0
448,0.0
449,59.99819812198352
450,59.99819812198352
587,0.0
588,49.838803982199078
589,49.838803982199078
590,0.0
120,324000.0
2,2, 1, 2, 0,23, 0.00,60.00,Monday
7,0.8
314,18.644344156845535
315,0.0
379,0.0
393,0.0
394,0.0
396,0.0
397,0.0
448,0.0
449,59.99819812198352
450,59.99819812198352
587,0.0
588,49.838803982199078
589,49.838803982199078
590,0.0
120,216000.0
2,2, 1, 2, 0,24, 0.00,60.00,Monday
7,0.9
314,18.350901424056159
315,0.0
379,0.0
393,0.0
394,0.0
396,0.0
397,0.0
448,0.0
449,59.99819812198352
450,59.99819812198352
587,0.0
588,49.838803982199078
589,49.838803982199078
590,0.0
120,57600.0
2,3, 1, 3, 0, 1, 0.00,60.00,Tuesday
7,1.1
314,17.903764587733734
315,0.0
379,0.0
393,0.0
394,0.0
396,0.0
397,0.0
448,0.0
449,59.99819812198352
450,59.99819812198352
587,0.0
588,49.838803982199078
589,49.838803982199078
590,0.0
120,43200.0
2,3, 1, 3, 0, 2, 0.00,60.00,Tuesday
7,0.9
314,17.757134620115214
315,0.0
379,0.0
393,0.0
394,0.0
396,0.0
397,0.0
448,0.0
449,59.99819812198352
450,59.99819812198352
587,0.0
588,49.838803982199078
589,49.838803982199078
590,0.0
120,43200.0
2,3, 1, 3, 0, 3, 0.00,60.00,Tuesday
7,0.6
314,17.662615096277599
315,0.0
379,0.0
393,0.0
394,0.0
396,0.0
397,0.0
448,0.0
449,59.99819812198352
450,59.99819812198352
587,0.0
588,49.838803982199078
589,49.838803982199078
590,0.0
120,43200.0
2,3, 1, 3, 0, 4, 0.00,60.00,Tuesday
7,0.4
314,17.54670990359713
315,0.0
379,0.0
393,0.0
394,0.0
396,0.0
397,0.0
448,0.0
449,59.99819812198352
450,59.99819812198352
587,0.0
588,49.838803982199078
589,49.838803982199078
590,0.0
120,43200.0
2,3, 1, 3, 0, 5, 0.00,60.00,Tuesday
7,0.6
314,17.470088279867203
315,0.0
379,0.0
393,0.0
394,0.0
396,0.0
397,0.0
448,0.0
449,59.99819812198352
450,59.99819812198352
587,0.0
588,49.838803982199078
589,49.838803982199078
590,0.0
120,43200.0
2,3, 1, 3, 0, 6, 0.00,60.00,Tuesday
7,0.9
314,21.58828289413401
315,0.0
379,0.0
393,0.0
394,0.0
396,0.0
397,1034.3237130495131
448,0.03532972933333334
449,59.93328233750423
450,50.08046995444829
587,1458.7074827416645
588,49.919791896381969
589,59.84968051099664
590,0.03532972933333334
120,5294546.937869993
2,3, 1, 3, 0, 7, 0.00,60.00,Tuesday
7,1.1
314,21.932370227100756
315,0.0
379,0.0
393,0.0
394,0.0
396,0.0
397,1042.2340494226873
448,0.043276835312500008
449,59.88572887677927
450,50.51426716313426
587,1748.6935165588739
588,50.1424815582301
589,59.824534203377989
590,0.043276835312500008
120,6496896.659611946
2,3, 1, 3, 0, 8, 0.00,60.00,Tuesday
7,0.9
314,22.113150461657989
315,0.0
379,0.0
393,0.0
394,0.0
396,0.0
397,986.3245623505968
448,0.039058515625000008
449,59.91078809933605
450,50.3771510444835
587,1591.065537265184
588,50.25725179805456
589,59.99999999999999
590,0.039058515625000008
120,6080635.934154662
2,3, 1, 3, 0, 9, 0.00,60.00,Tuesday
7,0.8
314,19.96989571175574
315,0.0
379,0.0
393,0.0
394,0.0
396,0.0
397,807.6249585765988
448,0.037691467578125
449,59.92940142144671
450,51.86183869916101
587,1518.1462335722115
588,50.31427051403564
589,58.346037081911678
590,0.037691467578125
120,5767726.440859961
2,3, 1, 3, 0,10, 0.00,60.00,Tuesday
7,0.6
314,18.13983243120925
315,0.0
379,0.0
393,0.0
394,0.0
396,0.0
397,369.73162384904267
448,0.014998470000000002
449,59.94256383762074
450,54.4800230433416
587,614.5688486405253
588,50.251447792475328
589,55.15154978408336
590,0.014998470000000002
120,2442847.855105891
2,3, 1, 3, 0,11, 0.00,60.00,Tuesday
7,1.1
314,19.844246611960096
315,0.0
379,0.0
393,0.0
394,0.0
396,0.0
397,867.4053983693675
448,0.030184420875000008
449,59.95801001272131
450,49.4157017342417
587,1263.8484936217897
588,49.98491809886289
589,60.0
590,0.030184420875000008
120,4744254.577038443
2,3, 1, 3, 0,12, 0.00,60.00,Tuesday
7,1.6
314,20.01980239192914
315,0.0
379,0.0
393,0.0
394,0.0
396,0.0
397,817.807320690614
448,0.031051519921875008
449,59.970978569297468
450,49.599304813310357
587,1313.8789631018362
588,49.87898977691461
589,60.0
590,0.031051519921875008
120,4967564.267166611
2,3, 1, 3, 0,13, 0.00,60.00,Tuesday
7,2.1
314,20.18492489671243
315,0.0
379,0.0
393,0.0
394,0.0
396,0.0
397,809.2013259242726
448,0.029996940000000004
449,59.97982376988966
450,49.62526995375046
587,1277.296092307619
588,49.815533269783639
589,60.0
590,0.029996940000000004
120,4893465.932307428
2,3, 1, 3, 0,14, 0.00,60.00,Tuesday
7,1.7
314,20.115639269341437
315,0.0
379,0.0
393,0.0
394,0.0
396,0.0
397,807.3580833762883
448,0.029996940000000004
449,59.985923521902659
450,49.66231169163025
587,1281.2858388089987
588,49.78370563934021
589,60.0
590,0.029996940000000004
120,4864629.019712395
2,3, 1, 3, 0,15, 0.00,60.00,Tuesday
7,1.4
314,20.074586492088416
315,0.0
379,0.0
393,0.0
394,0.0
396,0.0
397,836.1257529937932
448,0.031324929531250007
449,59.99025344213644
450,49.72374262295911
587,1338.9265933891659
588,49.77669926923762
589,60.0
590,0.031324929531250007
120,5064935.736200998
2,3, 1, 3, 0,16, 0.00,60.00,Tuesday
7,1.0
314,20.07548072595391
315,0.0
379,0.0
393,0.0
394,0.0
396,0.0
397,859.5266575375933
448,0.032418567968750009
449,59.993347841520058
450,49.77822119512958
587,1383.872376087375
588,49.789984320426018
589,59.99999999999999
590,0.032418567968750009
120,5190740.55391455
2,3, 1, 3, 0,17, 0.00,60.00,Tuesday
7,1.0
314,20.07208284565429
315,0.0
379,0.0
393,0.0
394,0.0
396,0.0
397,845.1553346400318
448,0.031871748750000008
449,59.99547826931293
450,49.763353433705308
587,1358.5788673068666
588,49.804633251715248
589,60.0
590,0.031871748750000008
120,5121283.92230472
2,3, 1, 3, 0,18, 0.00,60.00,Tuesday
7,1.0
314,20.317176866936184
315,0.0
379,0.0
393,0.0
394,0.0
396,0.0
397,802.3051911790827
448,0.029996940000000004
449,59.996882581721887
450,49.68393302629003
587,1279.3200167232783
588,49.79938771517811
589,60.0
590,0.029996940000000004
120,4965552.060203802
2,3, 1, 3, 0,19, 0.00,60.00,Tuesday
7,1.0
314,20.809674905936157
315,0.0
379,0.0
393,0.0
394,0.0
396,0.0
397,405.7991400481901
448,0.014998470000000002
449,59.99766502948004
450,54.87748855830248
587,640.0568295317528
588,49.79349576625958
589,54.89696749375132
590,0.014998470000000002
120,2657004.5863143105
2,3, 1, 3, 0,20, 0.00,60.00,Tuesday
7,1.0
314,20.546080998280425
315,0.0
379,0.0
393,0.0
394,0.0
396,0.0
397,393.42281880135729
448,0.014998470000000002
449,59.99797505766559
450,54.819203788253449
587,640.3838466286861
588,49.78971185390828
589,54.89579231591341
590,0.014998470000000002
120,2593381.84786327
2,3, 1, 3, 0,21, 0.00,60.00,Tuesday
7,1.0
314,19.662802138487004
315,0.0
379,0.0
393,0.0
394,0.0
396,0.0
397,0.0
448,0.0
449,59.99819310300919
450,59.99819310300919
587,0.0
588,49.78147306383554
589,49.78147306383554
590,0.0
120,259200.0
2,3, 1, 3, 0,22, 0.00,60.00,Tuesday
7,1.0
314,19.38863590291856
315,0.0
379,0.0
393,0.0
394,0.0
396,0.0
397,0.0
448,0.0
449,59.99819310300919
450,59.99819310300919
587,0.0
588,49.78147306383554
589,49.78147306383554
590,0.0
120,324000.0
2,3, 1, 3, 0,23, 0.00,60.00,Tuesday
7,1.4
314,18.88131705134655
315,0.0
379,0.0
393,0.0
394,0.0
396,0.0
397,0.0
448,0.0
449,59.99819310300919
450,59.99819310300919
587,0.0
588,49.78147306383554
589,49.78147306383554
590,0.0
120,216000.0
2,3, 1, 3, 0,24, 0.00,60.00,Tuesday
7,1.7
314,18.5877221929085
315,0.0
379,0.0
393,0.0
394,0.0
396,0.0
397,0.0
448,0.0
449,59.99819310300919
450,59.99819310300919
587,0.0
588,49.78147306383554
589,49.78147306383554
590,0.0
120,57600.0
2,4, 1, 4, 0, 1, 0.00,60.00,Wednesday
7,2.1
314,18.166238750327957
315,0.0
379,0.0
393,0.0
394,0.0
396,0.0
397,0.0
448,0.0
449,59.99819310300919
450,59.99819310300919
587,0.0
588,49.78147306383554
589,49.78147306383554
590,0.0
120,43200.0
2,4, 1, 4, 0, 2, 0.00,60.00,Wednesday
7,1.4
314,17.9570720389266
315,0.0
379,0.0
393,0.0
394,0.0
396,0.0
397,0.0
448,0.0
449,59.99819310300919
450,59.99819310300919
587,0.0
588,49.78147306383554
589,49.78147306383554
590,0.0
120,43200.0
2,4, 1, 4, 0, 3, 0.00,60.00,Wednesday
7,0.8
314,17.83849875670584
315,0.0
379,0.0
393,0.0
394,0.0
396,0.0
397,0.0
448,0.0
449,59.99819310300919
450,59.99819310300919
587,0.0
588,49.78147306383554
589,49.78147306383554
590,0.0
120,43200.0
2,4, 1, 4, 0, 4, 0.00,60.00,Wednesday
7,0.1
314,17.73032982239007
315,0.0
379,0.0
393,0.0
394,0.0
396,0.0
397,0.0
448,0.0
449,59.99819310300919
450,59.99819310300919
587,0.0
588,49.78147306383554
589,49.78147306383554
590,0.0
120,43200.0
2,4, 1, 4, 0, 5, 0.00,60.00,Wednesday
7,-0.3
314,17.61759743610601
315,0.0
379,0.0
393,0.0
394,0.0
396,0.0
397,0.0
448,0.0
449,59.99819310300919
450,59.99819310300919
587,0.0
588,49.78147306383554
589,49.78147306383554
590,0.0
120,43200.0
2,4, 1, 4, 0, 6, 0.00,60.00,Wednesday
7,-0.7
314,21.713262122856418
315,0.0
379,0.0
393,0.0
394,0.0
396,0.0
397,1029.0575888195358
448,0.03532972933333334
449,59.9273856505166
450,50.104415691464229
587,1462.076928438504
588,49.87935999325176
589,59.83613377417925
590,0.03532972933333334
120,5306676.942378615
2,4, 1, 4, 0, 7, 0.00,60.00,Wednesday
7,-1.1
314,21.954322274074749
315,0.0
379,0.0
393,0.0
394,0.0
396,0.0
397,1036.2771415794293
448,0.043198718281250009
449,59.877179437992847
450,50.52226460712171
587,1746.6458524034856
588,50.12368612627561
589,59.813324259208759
590,0.043198718281250009
120,6489525.068652548
2,4, 1, 4, 0, 8, 0.00,60.00,Wednesday
7,-1.4
314,22.109583099949029
315,0.0
379,0.0
393,0.0
394,0.0
396,0.0
397,985.9371239249854
448,0.039058515625000008
449,59.90429221546655
450,50.36882881985767
587,1593.1688863063996
588,50.24436009548624
589,59.99999999999999
590,0.039058515625000008
120,6088207.990703039
2,4, 1, 4, 0, 9, 0.00,60.00,Wednesday
7,-1.8
314,19.936631749287895
315,0.0
379,0.0
393,0.0
394,0.0
396,0.0
397,881.503848959363
448,0.04142434571428571
449,59.92243637101957
450,51.75784033597249
587,1664.7085447362165
588,50.32226157808758
589,58.56201330761193
590,0.04142434571428571
120,6295350.761050381
2,4, 1, 4, 0,10, 0.00,60.00,Wednesday
7,-2.1
314,20.098682956728096
315,0.0
379,0.0
393,0.0
394,0.0
396,0.0
397,1109.508205584521
448,0.04397988859375
449,59.94843559161756
450,50.240141867478389
587,1775.870195595828
588,50.34254498623287
589,60.0
590,0.04397988859375
120,6623532.704144981
2,4, 1, 4, 0,11, 0.00,60.00,Wednesday
7,-2.4
314,20.084434233173526
315,0.0
379,0.0
393,0.0
394,0.0
396,0.0
397,885.773632294314
448,0.033434089375
449,59.967753433017197
450,49.78879273845557
587,1363.089646639656
588,50.24910673937241
589,60.0
590,0.033434089375
120,5101522.727902762
2,4, 1, 4, 0,12, 0.00,60.00,Wednesday
7,-2.6
314,20.08178844619514
315,0.0
379,0.0
393,0.0
394,0.0
396,0.0
397,900.2701159498462
448,0.03437149375
449,59.978517361906039
450,49.8729385885338
587,1418.0658007271722
588,50.1323824464591
589,60.0
590,0.03437149375
120,5342636.88261782
2,4, 1, 4, 0,13, 0.00,60.00,Wednesday
7,-2.9
314,20.078651693425618
315,0.0
379,0.0
393,0.0
394,0.0
396,0.0
397,904.7211480968946
448,0.034683961875
449,59.98580189812682
450,49.905581075251379
587,1439.632983696191
588,50.07249971348106
589,60.0
590,0.034683961875
120,5477878.741306288
2,4, 1, 4, 0,14, 0.00,60.00,Wednesday
7,-3.5
314,20.08601271665159
315,0.0
379,0.0
393,0.0
394,0.0
396,0.0
397,981.7951534904237
448,0.0382773453125
449,59.99082249781428
450,50.08508142053084
587,1588.8360568461371
588,50.07217505747901
589,59.99999999999999
590,0.0382773453125
120,5971809.804646093
2,4, 1, 4, 0,15, 0.00,60.00,Wednesday
7,-4.2
314,20.08769524205939
315,0.0
379,0.0
393,0.0
394,0.0
396,0.0
397,1029.6575983760522
448,0.040620856250000007
449,59.99427740103407
450,50.20622622107366
587,1676.8256451844454
588,50.12690323614085
589,60.0
590,0.040620856250000007
120,6281372.322664004
2,4, 1, 4, 0,16, 0.00,60.00,Wednesday
7,-4.8
314,20.093277832057919
315,0.0
379,0.0
393,0.0
394,0.0
396,0.0
397,1077.3060796810778
448,0.04304248421875
449,59.996532286468838
450,50.33017738758123
587,1761.6607500214748
588,50.211052194277957
589,59.99999999999999
590,0.04304248421875
120,6550778.700077309
2,4, 1, 4, 0,17, 0.00,60.00,Wednesday
7,-5.1
314,20.089274363198859
315,0.0
379,0.0
393,0.0
394,0.0
396,0.0
397,1081.1204910288245
448,0.0432768353125
449,59.99793459489625
450,50.34651334935117
587,1757.1217976502928
588,50.28921838674707
589,59.99999999999999
590,0.0432768353125
120,6556038.471541055
2,4, 1, 4, 0,18, 0.00,60.00,Wednesday
7,-5.5
314,20.081101922148244
315,0.0
379,0.0
393,0.0
394,0.0
396,0.0
397,976.403260773683
448,0.038121111250000009
449,59.998735401661949
450,50.09478594209166
587,1548.129167200628
588,50.28708595869582
589,59.99999999999999
590,0.038121111250000009
120,5933265.001922261
2,4, 1, 4, 0,19, 0.00,60.00,Wednesday
7,-5.8
314,20.56604899907205
315,0.0
379,0.0
393,0.0
394,0.0
396,0.0
397,483.957451112614
448,0.017998164000000005
449,59.999103468587069
450,53.82161499705096
587,736.6361696188844
588,50.21088478912164
589,56.084251955074709
590,0.017998164000000005
120,3004690.2106279844
2,4, 1, 4, 0,20, 0.00,60.00,Wednesday
7,-5.9
314,20.52340431632244
315,0.0
379,0.0
393,0.0
394,0.0
396,0.0
397,393.21771380928626
448,0.014998470000000002
449,59.99928086733733
450,54.87027943076363
587,618.5586094052899
588,50.12881104509298
589,55.060754396006988
590,0.014998470000000002
120,2514810.993859044
2,4, 1, 4, 0,21, 0.00,60.00,Wednesday
7,-6.1
314,18.95463146415032
315,0.0
379,0.0
393,0.0
394,0.0
396,0.0
397,0.0
448,0.0
449,59.9993287725577
450,59.9993287725577
587,0.0
588,50.10539112382627
589,50.10539112382627
590,0.0
120,259200.0
2,4, 1, 4, 0,22, 0.00,60.00,Wednesday
7,-6.2
314,18.722077776608417
315,0.0
379,0.0
393,0.0
394,0.0
396,0.0
397,0.0
448,0.0
449,59.9993287725577
450,59.9993287725577
587,0.0
588,50.10539112382627
589,50.10539112382627
590,0.0
120,324000.0
2,4, 1, 4, 0,23, 0.00,60.00,Wednesday
7,-6.2
314,18.255517533000917
315,0.0
379,0.0
393,0.0
394,0.0
396,0.0
397,0.0
448,0.0
449,59.9993287725577
450,59.9993287725577
587,0.0
588,50.10539112382627
589,50.10539112382627
590,0.0
120,216000.0
2,4, 1, 4, 0,24, 0.00,60.00,Wednesday
7,-6.3
314,17.95029572288388
315,0.0
379,0.0
393,0.0
394,0.0
396,0.0
397,0.0
448,0.0
449,59.9993287725577
450,59.9993287725577
587,0.0
588,50.10539112382627
589,50.10539112382627
590,0.0
120,57600.0
2,5, 1, 5, 0, 1, 0.00,60.00,Thursday
7,-6.3
314,17.450222460664969
315,0.0
379,0.0
393,0.0
394,0.0
396,0.0
397,0.0
448,0.0
449,59.9993287725577
450,59.9993287725577
587,0.0
588,50.10539112382627
589,50.10539112382627
590,0.0
120,43200.0
2,5, 1, 5, 0, 2, 0.00,60.00,Thursday
7,-6.4
314,17.297479867892528
315,0.0
379,0.0
393,0.0
394,0.0
396,0.0
397,0.0
448,0.0
449,59.9993287725577
450,59.9993287725577
587,0.0
588,50.10539112382627
589,50.10539112382627
590,0.0
120,43200.0
2,5, 1, 5, 0, 3, 0.00,60.00,Thursday
7,-6.5
314,17.195683227044517
315,0.0
379,0.0
393,0.0
394,0.0
396,0.0
397,0.0
448,0.0
449,59.9993287725577
450,59.9993287725577
587,0.0
588,50.10539112382627
589,50.10539112382627
590,0.0
120,43200.0
2,5, 1, 5, 0, 4, 0.00,60.00,Thursday
7,-6.6
314,17.07495948552274
315,0.0
379,0.0
393,0.0
394,0.0
396,0.0
397,0.0
448,0.0
449,59.9993287725577
450,59.9993287725577
587,0.0
588,50.10539112382627
589,50.10539112382627
590,0.0
120,43200.0
2,5, 1, 5, 0, 5, 0.00,60.00,Thursday
7,-6.4
314,16.966014031046428
315,0.0
379,0.0
393,0.0
394,0.0
396,0.0
397,0.0
448,0.0
449,59.9993287725577
450,59.9993287725577
587,0.0
588,50.10539112382627
589,50.10539112382627
590,0.0
120,43200.0
2,5, 1, 5, 0, 6, 0.00,60.00,Thursday
7,-6.3
314,21.343553129820479
315,0.0
379,0.0
393,0.0
394,0.0
396,0.0
397,1204.0717845451006
448,0.04216087772321428
449,59.95401285242616
450,50.354894473984497
587,1709.9586924221858
588,50.171585547540917
589,59.88721159143071
590,0.04216087772321428
120,6199051.29271987
2,5, 1, 5, 0, 7, 0.00,60.00,Thursday
7,-6.1
314,21.608216614433908
315,0.0
379,0.0
393,0.0
394,0.0
396,0.0
397,1158.7322699514286
448,0.049994899999999998
449,59.94458889423696
450,50.830017597570279
587,1996.016409776898
588,50.39376352640211
589,59.94241151807248
590,0.049994899999999998
120,7387259.075196833