Program Version,EnergyPlus, Version 8.9.0-40101eaafd, YMD=2019.01.10 16:03
1,5,Environment Title[],Latitude[deg],Longitude[deg],Time Zone[],Elevation[m]
2,8,Day of Simulation[],Month[],Day of Month[],DST Indicator[1=yes 0=no],Hour[],StartMinute[],EndMinute[],DayType
3,5,Cumulative Day of Simulation[],Month[],Day of Month[],DST Indicator[1=yes 0=no],DayType  ! When Daily Report Variables Requested
4,2,Cumulative Days of Simulation[],Month[]  ! When Monthly Report Variables Requested
5,1,Cumulative Days of Simulation[] ! When Run Period Report Variables Requested
6,1,Calendar Year of Simulation[] ! When Annual Report Variables Requested
7,1,Environment,Site Outdoor Air Drybulb Temperature [C] !Hourly
314,1,ZONE ONE,Zone Air Temperature [C] !Hourly
315,1,ERV_1_HX,Heat Exchanger Total Heating Rate [W] !Hourly
379,1,ERV_1_FANSUPPLY,Fan Electric Power [W] !Hourly
393,1,ERV_1_FANSUPPLY,Fan Air Mass Flow Rate [kg/s] !Hourly
394,1,ERV_1_FANEXHAUST,Fan Electric Power [W] !Hourly
396,1,ERV_1_FANEXHAUST,Fan Air Mass Flow Rate [kg/s] !Hourly
397,1,RADIATOR,Baseboard Total Heating Rate [W] !Hourly
448,1,RADIATOR,Baseboard Hot Water Mass Flow Rate [kg/s] !Hourly
449,1,RADIATOR,Baseboard Water Inlet Temperature [C] !Hourly
450,1,RADIATOR,Baseboard Water Outlet Temperature [C] !Hourly
587,1,DISTRICT HEATING 1,District Heating Rate [W] !Hourly
588,1,DISTRICT HEATING 1,District Heating Inlet Temperature [C] !Hourly
589,1,DISTRICT HEATING 1,District Heating Outlet Temperature [C] !Hourly
590,1,DISTRICT HEATING 1,District Heating Mass Flow Rate [kg/s] !Hourly
120,1,DistrictHeating:Facility [J] !Hourly
End of Data Dictionary
1,ANNUAL SIM 1,  59.65,  17.95,   1.00,  61.00
2,1, 1, 1, 0, 1, 0.00,60.00,Sunday
7,4.0
314,18.2247776016904
315,0.0
379,0.0
393,0.0
394,0.0
396,0.0
397,0.0
448,0.0
449,55.0
450,55.0
587,0.0
588,45.53841546632255
589,45.53841546632255
590,0.0
120,43200.0
2,1, 1, 1, 0, 2, 0.00,60.00,Sunday
7,5.3
314,18.137807750435927
315,0.0
379,0.0
393,0.0
394,0.0
396,0.0
397,0.0
448,0.0
449,55.0
450,55.0
587,0.0
588,45.53841546632255
589,45.53841546632255
590,0.0
120,43200.0
2,1, 1, 1, 0, 3, 0.00,60.00,Sunday
7,6.2
314,18.125711122241019
315,0.0
379,0.0
393,0.0
394,0.0
396,0.0
397,0.0
448,0.0
449,55.0
450,55.0
587,0.0
588,45.53841546632255
589,45.53841546632255
590,0.0
120,43200.0
2,1, 1, 1, 0, 4, 0.00,60.00,Sunday
7,6.8
314,18.1031197750663
315,0.0
379,0.0
393,0.0
394,0.0
396,0.0
397,0.0
448,0.0
449,55.0
450,55.0
587,0.0
588,45.53841546632255
589,45.53841546632255
590,0.0
120,43200.0
2,1, 1, 1, 0, 5, 0.00,60.00,Sunday
7,7.2
314,18.065179819743287
315,0.0
379,0.0
393,0.0
394,0.0
396,0.0
397,0.0
448,0.0
449,55.0
450,55.0
587,0.0
588,45.53841546632255
589,45.53841546632255
590,0.0
120,43200.0
2,1, 1, 1, 0, 6, 0.00,60.00,Sunday
7,7.5
314,20.448999286881795
315,0.0
379,0.0
393,0.0
394,0.0
396,0.0
397,534.5821106238953
448,0.019997960000000007
449,55.0
450,49.22338216060493
587,790.8232146428878
588,45.53768905982151
589,51.21443051008116
590,0.019997960000000007
120,2890163.5727143965
2,1, 1, 1, 0, 7, 0.00,60.00,Sunday
7,7.5
314,20.63344750956524
315,0.0
379,0.0
393,0.0
394,0.0
396,0.0
397,557.7098510233482
448,0.022497705000000004
449,55.0
450,47.74043593592063
587,892.7541964457466
588,45.508854022017988
589,52.62865953892117
590,0.022497705000000004
120,3278715.107204688
2,1, 1, 1, 0, 8, 0.00,60.00,Sunday
7,6.7
314,20.644052509081
315,0.0
379,0.0
393,0.0
394,0.0
396,0.0
397,473.25950026702858
448,0.019997960000000003
449,55.0
450,48.55653195534155
587,795.449454320141
588,45.48540396678558
589,51.82920113248253
590,0.019997960000000003
120,3043618.0355525074
2,1, 1, 1, 0, 9, 0.00,60.00,Sunday
7,6.0
314,20.68841620945211
315,0.0
379,0.0
393,0.0
394,0.0
396,0.0
397,514.4264576422632
448,0.019997960000000003
449,55.0
450,48.56068930682487
587,796.9016959008325
588,45.46800718573738
589,51.82339142294185
590,0.019997960000000003
120,3135246.1052429967
2,1, 1, 1, 0,10, 0.00,60.00,Sunday
7,5.2
314,20.72919938916027
315,0.0
379,0.0
393,0.0
394,0.0
396,0.0
397,522.4513842802976
448,0.019997960000000003
449,55.0
450,48.57058485992765
587,797.846973711259
588,45.45670732818288
589,51.81963371039038
590,0.019997960000000003
120,3124249.105360532
2,1, 1, 1, 0,11, 0.00,60.00,Sunday
7,5.2
314,20.44420066006502
315,0.0
379,0.0
393,0.0
394,0.0
396,0.0
397,759.3505891664754
448,0.029996940000000004
449,55.0
450,45.3696552932982
587,1197.959584460361
588,45.446122682659119
589,55.0
590,0.029996940000000004
120,4543054.504057299
2,1, 1, 1, 0,12, 0.00,60.00,Sunday
7,5.2
314,20.50258365878322
315,0.0
379,0.0
393,0.0
394,0.0
396,0.0
397,755.2323183821394
448,0.029996940000000004
449,55.0
450,45.38097722182873
587,1198.157504338484
588,45.44454352493616
589,55.0
590,0.029996940000000004
120,4565367.015618542
2,1, 1, 1, 0,13, 0.00,60.00,Sunday
7,5.2
314,20.59868165356966
315,0.0
379,0.0
393,0.0
394,0.0
396,0.0
397,749.481656404435
448,0.029996940000000004
449,55.0
450,45.44642830223521
587,1196.7796811985236
588,45.45553685765483
589,55.0
590,0.029996940000000004
120,4610806.852314685
2,1, 1, 1, 0,14, 0.00,60.00,Sunday
7,4.6
314,20.418578466049948
315,0.0
379,0.0
393,0.0
394,0.0
396,0.0
397,744.1454440253183
448,0.029996940000000004
449,55.0
450,45.51107910637444
587,1193.3544414376286
588,45.48286600474667
589,54.99999999999999
590,0.029996940000000004
120,4562475.989175463
2,1, 1, 1, 0,15, 0.00,60.00,Sunday
7,4.1
314,20.23840867390968
315,0.0
379,0.0
393,0.0
394,0.0
396,0.0
397,743.9573515649952
448,0.029996940000000004
449,55.0
450,45.48442701490727
587,1190.3483577503616
588,45.506850749524549
589,54.99999999999999
590,0.029996940000000004
120,4544454.087901302
2,1, 1, 1, 0,16, 0.00,60.00,Sunday
7,3.5
314,20.092060089543574
315,0.0
379,0.0
393,0.0
394,0.0
396,0.0
397,745.132853005404
448,0.029996940000000004
449,55.0
450,45.44677557973966
587,1189.4818141159494
588,45.51376466122241
589,55.0
590,0.029996940000000004
120,4505334.530817418
2,1, 1, 1, 0,17, 0.00,60.00,Sunday
7,3.2
314,20.624836315209426
315,0.0
379,0.0
393,0.0
394,0.0
396,0.0
397,450.98074219770128
448,0.017998164000000005
449,55.0
450,49.27272793808415
587,713.8398919808881
588,45.51228848346871
589,51.20523290593434
590,0.017998164000000005
120,2800223.611131197
2,1, 1, 1, 0,18, 0.00,60.00,Sunday
7,2.9
314,20.735816520437234
315,0.0
379,0.0
393,0.0
394,0.0
396,0.0
397,373.5554143867814
448,0.014998470000000002
449,55.0
450,50.264611748797239
587,594.1653258792246
588,45.524534528100577
589,50.26305979843656
590,0.014998470000000002
120,2462995.1731652088
2,1, 1, 1, 0,19, 0.00,60.00,Sunday
7,2.6
314,20.85303262594123
315,0.0
379,0.0
393,0.0
394,0.0
396,0.0
397,398.2442464265899
448,0.014998470000000002
449,55.0
450,50.260128753131009
587,593.450905254598
588,45.53548347439808
589,50.26830859029413
590,0.014998470000000002
120,2438823.2589165528
2,1, 1, 1, 0,20, 0.00,60.00,Sunday
7,2.5
314,20.902992196865278
315,0.0
379,0.0
393,0.0
394,0.0
396,0.0
397,398.84869315862206
448,0.014998470000000002
449,55.0
450,50.24034212255943
587,593.1083044526993
588,45.53995229019056
589,50.270043896044708
590,0.014998470000000002
120,2387189.8960297175
2,1, 1, 1, 0,21, 0.00,60.00,Sunday
7,2.4
314,19.44412185972225
315,0.0
379,0.0
393,0.0
394,0.0
396,0.0
397,0.0
448,0.0
449,55.0
450,55.0
587,0.0
588,45.53838671317354
589,45.53838671317354
590,0.0
120,216000.0
2,1, 1, 1, 0,22, 0.00,60.00,Sunday
7,2.3
314,19.166435241987089
315,0.0
379,0.0
393,0.0
394,0.0
396,0.0
397,0.0
448,0.0
449,55.0
450,55.0
587,0.0
588,45.53838671317354
589,45.53838671317354
590,0.0
120,244800.0
2,1, 1, 1, 0,23, 0.00,60.00,Sunday
7,2.3
314,18.767147163356719
315,0.0
379,0.0
393,0.0
394,0.0
396,0.0
397,0.0
448,0.0
449,55.0
450,55.0
587,0.0
588,45.53838671317354
589,45.53838671317354
590,0.0
120,187200.0
2,1, 1, 1, 0,24, 0.00,60.00,Sunday
7,2.2
314,18.518023344724825
315,0.0
379,0.0
393,0.0
394,0.0
396,0.0
397,0.0
448,0.0
449,55.0
450,55.0
587,0.0
588,45.53838671317354
589,45.53838671317354
590,0.0
120,86400.0
2,2, 1, 2, 0, 1, 0.00,60.00,Monday
7,2.2
314,18.026525598834256
315,0.0
379,0.0
393,0.0
394,0.0
396,0.0
397,0.0
448,0.0
449,55.0
450,55.0
587,0.0
588,45.53838671317354
589,45.53838671317354
590,0.0
120,43200.0
2,2, 1, 2, 0, 2, 0.00,60.00,Monday
7,2.2
314,17.855223896706197
315,0.0
379,0.0
393,0.0
394,0.0
396,0.0
397,0.0
448,0.0
449,55.0
450,55.0
587,0.0
588,45.53838671317354
589,45.53838671317354
590,0.0
120,43200.0
2,2, 1, 2, 0, 3, 0.00,60.00,Monday
7,2.1
314,17.753134871458895
315,0.0
379,0.0
393,0.0
394,0.0
396,0.0
397,0.0
448,0.0
449,55.0
450,55.0
587,0.0
588,45.53838671317354
589,45.53838671317354
590,0.0
120,43200.0
2,2, 1, 2, 0, 4, 0.00,60.00,Monday
7,2.1
314,17.686073393648639
315,0.0
379,0.0
393,0.0
394,0.0
396,0.0
397,0.0
448,0.0
449,55.0
450,55.0
587,0.0
588,45.53838671317354
589,45.53838671317354
590,0.0
120,43200.0
2,2, 1, 2, 0, 5, 0.00,60.00,Monday
7,2.1
314,17.606248787702748
315,0.0
379,0.0
393,0.0
394,0.0
396,0.0
397,0.0
448,0.0
449,55.0
450,55.0
587,0.0
588,45.53838671317354
589,45.53838671317354
590,0.0
120,43200.0
2,2, 1, 2, 0, 6, 0.00,60.00,Monday
7,2.0
314,20.25672131210904
315,0.0
379,0.0
393,0.0
394,0.0
396,0.0
397,626.2447344299621
448,0.022997654000000007
449,55.0
450,48.21164335545173
587,910.7665612812406
588,45.521116282082939
589,52.15420555851366
590,0.022997654000000007
120,3321959.620612466
2,2, 1, 2, 0, 7, 0.00,60.00,Monday
7,2.0
314,20.513474916487334
315,0.0
379,0.0
393,0.0
394,0.0
396,0.0
397,577.7308402166237
448,0.022497705000000004
449,55.0
450,47.732800616440808
587,894.3988683669893
588,45.48906694434251
589,52.62199485659233
590,0.022497705000000004
120,3421435.9261211615
2,2, 1, 2, 0, 8, 0.00,60.00,Monday
7,2.0
314,20.60413804704293
315,0.0
379,0.0
393,0.0
394,0.0
396,0.0
397,512.8885723006252
448,0.019997960000000003
449,55.0
450,48.540856431478527
587,797.0405587905715
588,45.46625873757564
589,51.82275092850049
590,0.019997960000000003
120,3222146.0116460577
2,2, 1, 2, 0, 9, 0.00,60.00,Monday
7,1.9
314,19.96743524951534
315,0.0
379,0.0
393,0.0
394,0.0
396,0.0
397,873.8982618563018
448,0.036363478046875
449,55.0
450,45.64037337142739
587,1445.51316205595
588,45.48703771678613
589,55.0
590,0.036363478046875
120,5506247.38340142
2,2, 1, 2, 0,10, 0.00,60.00,Monday
7,1.9
314,20.094460409174798
315,0.0
379,0.0
393,0.0
394,0.0
396,0.0
397,948.806868110419
448,0.03913663265625
449,55.0
450,45.71935471379328
587,1537.70198011756
588,45.60060380978248
589,55.0
590,0.03913663265625
120,5766127.128423216
2,2, 1, 2, 0,11, 0.00,60.00,Monday
7,1.9
314,20.084794998437805
315,0.0
379,0.0
393,0.0
394,0.0
396,0.0
397,838.3779827973148
448,0.03382467453125
449,55.0
450,45.519882597782068
587,1324.7534178291191
588,45.630594459293728
589,55.0
590,0.03382467453125
120,4963512.304184829
2,2, 1, 2, 0,12, 0.00,60.00,Monday
7,1.9
314,20.07656690194641
315,0.0
379,0.0
393,0.0
394,0.0
396,0.0
397,792.9798007590766
448,0.031871748750000008
449,55.0
450,45.45551927731688
587,1251.6908509473246
588,45.60487994877772
589,55.0
590,0.031871748750000008
120,4743687.063410369
2,2, 1, 2, 0,13, 0.00,60.00,Monday
7,1.9
314,20.077477040205875
315,0.0
379,0.0
393,0.0
394,0.0
396,0.0
397,775.8472392986697
448,0.031168695468750009
449,55.0
450,45.4405906543565
587,1227.854342108943
588,45.575898041233028
589,55.0
590,0.031168695468750009
120,4715475.631592195
2,2, 1, 2, 0,14, 0.00,60.00,Monday
7,1.6
314,20.07858020716085
315,0.0
379,0.0
393,0.0
394,0.0
396,0.0
397,835.2522485636122
448,0.03413714265625
449,55.0
450,45.5950843871458
587,1344.0690224028808
588,45.5809728071352
589,55.00000000000001
590,0.03413714265625
120,5090648.480650371
2,2, 1, 2, 0,15, 0.00,60.00,Monday
7,1.3
314,20.0797306774978
315,0.0
379,0.0
393,0.0
394,0.0
396,0.0
397,864.9294276007448
448,0.035699483281250009
449,55.0
450,45.678153164376109
587,1399.2225909863864
588,45.62361053441822
589,54.99999999999999
590,0.035699483281250009
120,5282001.327550991
2,2, 1, 2, 0,16, 0.00,60.00,Monday
7,1.0
314,20.07968717735365
315,0.0
379,0.0
393,0.0
394,0.0
396,0.0
397,892.8783205995161
448,0.03718370687500001
449,54.99999999999999
450,45.75577483783956
587,1448.479191138641
588,45.681003573926378
589,55.0
590,0.03718370687500001
120,5423325.088099107
2,2, 1, 2, 0,17, 0.00,60.00,Monday
7,0.9
314,20.07753594090063
315,0.0
379,0.0
393,0.0
394,0.0
396,0.0
397,885.8111302914667
448,0.03687123875000001
449,54.99999999999999
450,45.742563511962909
587,1428.9564647106715
588,45.72871684953942
589,55.0
590,0.03687123875000001
120,5374643.272958417
2,2, 1, 2, 0,18, 0.00,60.00,Monday
7,0.7
314,20.066647110953494
315,0.0
379,0.0
393,0.0
394,0.0
396,0.0
397,766.9062830033387
448,0.031012461406250005
449,54.99999999999999
450,45.45993251981603
587,1204.4951493515575
588,45.708671584941559
589,55.0
590,0.031012461406250005
120,4696182.537665607
2,2, 1, 2, 0,19, 0.00,60.00,Monday
7,0.6
314,20.606247429144966
315,0.0
379,0.0
393,0.0
394,0.0
396,0.0
397,453.1860821302453
448,0.017998164000000005
449,55.0
450,49.25118164814755
587,702.9361627848759
588,45.65655660188682
589,51.262503807056379
590,0.017998164000000005
120,2883370.1860255536
2,2, 1, 2, 0,20, 0.00,60.00,Monday
7,0.6
314,20.566296797748977
315,0.0
379,0.0
393,0.0
394,0.0
396,0.0
397,365.1304509465151
448,0.014998470000000002
449,54.99999999999999
450,50.23274920021483
587,587.34192189545
588,45.629592548226529
589,50.3136761175889
590,0.014998470000000002
120,2402430.91882362
2,2, 1, 2, 0,21, 0.00,60.00,Monday
7,0.6
314,19.191605191879789
315,0.0
379,0.0
393,0.0
394,0.0
396,0.0
397,0.0
448,0.0
449,55.0
450,55.0
587,0.0
588,45.621103704584758
589,45.621103704584758
590,0.0
120,259200.0
2,2, 1, 2, 0,22, 0.00,60.00,Monday
7,0.6
314,19.002297235299765
315,0.0
379,0.0
393,0.0
394,0.0
396,0.0
397,0.0
448,0.0
449,54.99999999999999
450,54.99999999999999
587,0.0
588,45.62110370458475
589,45.62110370458475
590,0.0
120,324000.0
2,2, 1, 2, 0,23, 0.00,60.00,Monday
7,0.8
314,18.605705463351876
315,0.0
379,0.0
393,0.0
394,0.0
396,0.0
397,0.0
448,0.0
449,54.99999999999999
450,54.99999999999999
587,0.0
588,45.62110370458475
589,45.62110370458475
590,0.0
120,216000.0
2,2, 1, 2, 0,24, 0.00,60.00,Monday
7,0.9
314,18.31566442358823
315,0.0
379,0.0
393,0.0
394,0.0
396,0.0
397,0.0
448,0.0
449,54.99999999999999
450,54.99999999999999
587,0.0
588,45.62110370458475
589,45.62110370458475
590,0.0
120,57600.0
2,3, 1, 3, 0, 1, 0.00,60.00,Tuesday
7,1.1
314,17.86240889910628
315,0.0
379,0.0
393,0.0
394,0.0
396,0.0
397,0.0
448,0.0
449,54.99999999999999
450,54.99999999999999
587,0.0
588,45.62110370458475
589,45.62110370458475
590,0.0
120,43200.0
2,3, 1, 3, 0, 2, 0.00,60.00,Tuesday
7,0.9
314,17.72773160777752
315,0.0
379,0.0
393,0.0
394,0.0
396,0.0
397,0.0
448,0.0
449,54.99999999999999
450,54.99999999999999
587,0.0
588,45.62110370458475
589,45.62110370458475
590,0.0
120,43200.0
2,3, 1, 3, 0, 3, 0.00,60.00,Tuesday
7,0.6
314,17.633013372194058
315,0.0
379,0.0
393,0.0
394,0.0
396,0.0
397,0.0
448,0.0
449,54.99999999999999
450,54.99999999999999
587,0.0
588,45.62110370458475
589,45.62110370458475
590,0.0
120,43200.0
2,3, 1, 3, 0, 4, 0.00,60.00,Tuesday
7,0.4
314,17.51611481151624
315,0.0
379,0.0
393,0.0
394,0.0
396,0.0
397,0.0
448,0.0
449,54.99999999999999
450,54.99999999999999
587,0.0
588,45.62110370458475
589,45.62110370458475
590,0.0
120,43200.0
2,3, 1, 3, 0, 5, 0.00,60.00,Tuesday
7,0.6
314,17.440732080738316
315,0.0
379,0.0
393,0.0
394,0.0
396,0.0
397,0.0
448,0.0
449,54.99999999999999
450,54.99999999999999
587,0.0
588,45.62110370458475
589,45.62110370458475
590,0.0
120,43200.0
2,3, 1, 3, 0, 6, 0.00,60.00,Tuesday
7,0.9
314,20.14357059002352
315,0.0
379,0.0
393,0.0
394,0.0
396,0.0
397,701.1864207398654
448,0.025552948888888886
449,54.99999999999998
450,47.43185602336848
587,1004.9287702676944
588,45.5871326011904
589,52.90699148586012
590,0.025552948888888886
120,3660943.5729636999
2,3, 1, 3, 0, 7, 0.00,60.00,Tuesday
7,1.1
314,20.91711922043487
315,0.0
379,0.0
393,0.0
394,0.0
396,0.0
397,769.4281678599325
448,0.029996940000000004
449,54.99999999999999
450,45.398882143277329
587,1187.5014497205068
588,45.52956542011666
589,55.0
590,0.029996940000000004
120,4476605.218993824
2,3, 1, 3, 0, 8, 0.00,60.00,Tuesday
7,0.9
314,21.130071879080597
315,0.0
379,0.0
393,0.0
394,0.0
396,0.0
397,730.4045106189823
448,0.029996940000000004
449,54.99999999999999
450,45.481847869265639
587,1187.3413760899716
588,45.53084260378806
589,55.0
590,0.029996940000000004
120,4627228.953923898
2,3, 1, 3, 0, 9, 0.00,60.00,Tuesday
7,0.8
314,20.038858385151984
315,0.0
379,0.0
393,0.0
394,0.0
396,0.0
397,919.8028814029042
448,0.041734023945312507
449,54.99999999999999
450,45.92547326694448
587,1635.004895758823
588,45.62024104062423
589,55.0
590,0.041734023945312507
120,6188417.624731763
2,3, 1, 3, 0,10, 0.00,60.00,Tuesday
7,0.6
314,20.09604477912975
315,0.0
379,0.0
393,0.0
394,0.0
396,0.0
397,1016.7863066879698
448,0.042964367187500008
449,54.99999999999999
450,45.93335158017314
587,1653.574424308298
588,45.79290616860321
589,54.99999999999999
590,0.042964367187500008
120,6183267.927509872
2,3, 1, 3, 0,11, 0.00,60.00,Tuesday
7,1.1
314,20.08870322692126
315,0.0
379,0.0
393,0.0
394,0.0
396,0.0
397,900.109773507194
448,0.036949355781250008
449,54.99999999999999
450,45.668213732832
587,1417.791164043225
588,45.82064723087972
589,55.00000000000001
590,0.036949355781250008
120,5298448.190555611
2,3, 1, 3, 0,12, 0.00,60.00,Tuesday
7,1.6
314,20.081881448088475
315,0.0
379,0.0
393,0.0
394,0.0
396,0.0
397,824.6712555493124
448,0.033355972343750008
449,55.0
450,45.517466708748639
587,1287.7988382655262
588,45.76403526461379
589,55.0
590,0.033355972343750008
120,4873675.817755895
2,3, 1, 3, 0,13, 0.00,60.00,Tuesday
7,2.1
314,20.07221921578511
315,0.0
379,0.0
393,0.0
394,0.0
396,0.0
397,763.8254294755096
448,0.030543759218750009
449,55.0
450,45.39603006511348
587,1189.1352932028087
588,45.686385947805508
589,55.0
590,0.030543759218750009
120,4576087.055530111
2,3, 1, 3, 0,14, 0.00,60.00,Tuesday
7,1.7
314,20.077877261121086
315,0.0
379,0.0
393,0.0
394,0.0
396,0.0
397,821.6279816082023
448,0.033355972343750008
449,55.0
450,45.53494266674326
587,1305.183885669288
588,45.6392955733564
589,55.0
590,0.033355972343750008
120,4950661.988409436
2,3, 1, 3, 0,15, 0.00,60.00,Tuesday
7,1.4
314,20.079398200458255
315,0.0
379,0.0
393,0.0
394,0.0
396,0.0
397,847.0981078704004
448,0.034683961875
449,55.0
450,45.60404336694818
587,1357.2215190800437
588,45.6387793594555
589,55.0
590,0.034683961875
120,5130797.468688157
2,3, 1, 3, 0,16, 0.00,60.00,Tuesday
7,1.0
314,20.081262263681479
315,0.0
379,0.0
393,0.0
394,0.0
396,0.0
397,870.8659396649263
448,0.03593383437500001
449,55.0
450,45.66872402739164
587,1402.7267279289283
588,45.66144922902797
589,55.00000000000001
590,0.03593383437500001
120,5258616.220544142
2,3, 1, 3, 0,17, 0.00,60.00,Tuesday
7,1.0
314,20.076280957987323
315,0.0
379,0.0
393,0.0
394,0.0
396,0.0
397,855.9179319966496
448,0.035230781093750006
449,55.00000000000001
450,45.6374404664693
587,1372.4191902882346
588,45.68089768726092
589,55.0
590,0.035230781093750006
120,5171109.085037645
2,3, 1, 3, 0,18, 0.00,60.00,Tuesday
7,1.0
314,20.130883162075759
315,0.0
379,0.0
393,0.0
394,0.0
396,0.0
397,747.439046349139
448,0.029996940000000004
449,55.00000000000001
450,45.38592950011
587,1172.6962457306092
588,45.64769116026261
589,55.0
590,0.029996940000000004
120,4581706.484630194
2,3, 1, 3, 0,19, 0.00,60.00,Tuesday
7,1.0
314,20.72449304266339
315,0.0
379,0.0
393,0.0
394,0.0
396,0.0
397,455.18151148501888
448,0.017998164000000005
449,55.00000000000001
450,49.251555319839059
587,707.1651056001406
588,45.60027182816422
589,51.239960213228147
590,0.017998164000000005
120,2898594.3801605065
2,3, 1, 3, 0,20, 0.00,60.00,Tuesday
7,1.0
314,20.357902725198636
315,0.0
379,0.0
393,0.0
394,0.0
396,0.0
397,351.34205418739676
448,0.014998470000000002
449,55.00000000000001
450,50.15824729705662
587,591.1072752234545
588,45.576087215860429
589,50.290213234866687
590,0.014998470000000002
120,2415986.190804436
2,3, 1, 3, 0,21, 0.00,60.00,Tuesday
7,1.0
314,19.530815875315818
315,0.0
379,0.0
393,0.0
394,0.0
396,0.0
397,0.0
448,0.0
449,55.00000000000001
450,55.00000000000001
587,0.0
588,45.5551769257843
589,45.5551769257843
590,0.0
120,259200.0
2,3, 1, 3, 0,22, 0.00,60.00,Tuesday
7,1.0
314,19.276499434551107
315,0.0
379,0.0
393,0.0
394,0.0
396,0.0
397,0.0
448,0.0
449,55.00000000000001
450,55.00000000000001
587,0.0
588,45.5551769257843
589,45.5551769257843
590,0.0
120,324000.0
2,3, 1, 3, 0,23, 0.00,60.00,Tuesday
7,1.4
314,18.82698146295068
315,0.0
379,0.0
393,0.0
394,0.0
396,0.0
397,0.0
448,0.0
449,55.00000000000001
450,55.00000000000001
587,0.0
588,45.5551769257843
589,45.5551769257843
590,0.0
120,216000.0
2,3, 1, 3, 0,24, 0.00,60.00,Tuesday
7,1.7
314,18.543294522175264
315,0.0
379,0.0
393,0.0
394,0.0
396,0.0
397,0.0
448,0.0
449,55.00000000000001
450,55.00000000000001
587,0.0
588,45.5551769257843
589,45.5551769257843
590,0.0
120,57600.0
2,4, 1, 4, 0, 1, 0.00,60.00,Wednesday
7,2.1
314,18.115535560581283
315,0.0
379,0.0
393,0.0
394,0.0
396,0.0
397,0.0
448,0.0
449,55.00000000000001
450,55.00000000000001
587,0.0
588,45.5551769257843
589,45.5551769257843
590,0.0
120,43200.0
2,4, 1, 4, 0, 2, 0.00,60.00,Wednesday
7,1.4
314,17.910802593639184
315,0.0
379,0.0
393,0.0
394,0.0
396,0.0
397,0.0
448,0.0
449,55.00000000000001
450,55.00000000000001
587,0.0
588,45.5551769257843
589,45.5551769257843
590,0.0
120,43200.0
2,4, 1, 4, 0, 3, 0.00,60.00,Wednesday
7,0.8
314,17.796019775530284
315,0.0
379,0.0
393,0.0
394,0.0
396,0.0
397,0.0
448,0.0
449,55.00000000000001
450,55.00000000000001
587,0.0
588,45.5551769257843
589,45.5551769257843
590,0.0
120,43200.0
2,4, 1, 4, 0, 4, 0.00,60.00,Wednesday
7,0.1
314,17.689192614263406
315,0.0
379,0.0
393,0.0
394,0.0
396,0.0
397,0.0
448,0.0
449,55.00000000000001
450,55.00000000000001
587,0.0
588,45.5551769257843
589,45.5551769257843
590,0.0
120,43200.0
2,4, 1, 4, 0, 5, 0.00,60.00,Wednesday
7,-0.3
314,17.577705481779888
315,0.0
379,0.0
393,0.0
394,0.0
396,0.0
397,0.0
448,0.0
449,55.00000000000001
450,55.00000000000001
587,0.0
588,45.5551769257843
589,45.5551769257843
590,0.0
120,43200.0
2,4, 1, 4, 0, 6, 0.00,60.00,Wednesday
7,-0.7
314,20.24765198406358
315,0.0
379,0.0
393,0.0
394,0.0
396,0.0
397,697.9411277395822
448,0.025552948888888886
449,54.999999999999989
450,47.45275439392282
587,1010.5584896180754
588,45.53581047987672
589,52.89593855642339
590,0.025552948888888886
120,3681210.562625072
2,4, 1, 4, 0, 7, 0.00,60.00,Wednesday
7,-1.1
314,20.916068714416356
315,0.0
379,0.0
393,0.0
394,0.0
396,0.0
397,764.831171110039
448,0.029996940000000004
449,55.00000000000001
450,45.406624486492408
587,1191.571038297616
588,45.49709531116378
589,55.0
590,0.029996940000000004
120,4491255.737871418
2,4, 1, 4, 0, 8, 0.00,60.00,Wednesday
7,-1.4
314,21.140156442128928
315,0.0
379,0.0
393,0.0
394,0.0
396,0.0
397,733.8356451782804
448,0.029996940000000004
449,55.00000000000001
450,45.48259550389875
587,1190.1822716578308
588,45.5081759042001
589,55.0
590,0.029996940000000004
120,4637456.177968191
2,4, 1, 4, 0, 9, 0.00,60.00,Wednesday
7,-1.8
314,19.930594517625438
315,0.0
379,0.0
393,0.0
394,0.0
396,0.0
397,969.5013190940997
448,0.044995410000000009
449,55.00000000000001
450,46.07277057316809
587,1758.0685834034975
588,45.6395394195692
589,55.0
590,0.044995410000000009
120,6631446.900252591
2,4, 1, 4, 0,10, 0.00,60.00,Wednesday
7,-2.1
314,20.108054864842229
315,0.0
379,0.0
393,0.0
394,0.0
396,0.0
397,1118.0537338663166
448,0.04890126156249999
449,55.00000000000001
450,46.226786647635417
587,1854.4711081820121
588,45.92797070207062
589,54.99999999999999
590,0.04890126156249999
120,6906495.989455244
2,4, 1, 4, 0,11, 0.00,60.00,Wednesday
7,-2.4
314,20.095547357293989
315,0.0
379,0.0
393,0.0
394,0.0
396,0.0
397,942.5924337325542
448,0.03921474968750001
449,55.0
450,45.79429426894288
587,1476.7957012703619
588,45.99105164377229
589,55.00000000000001
590,0.03921474968750001
120,5510864.524573303
2,4, 1, 4, 0,12, 0.00,60.00,Wednesday
7,-2.6
314,20.09216633624236
315,0.0
379,0.0
393,0.0
394,0.0
396,0.0
397,938.9053146298753
448,0.039370983750000008
449,55.0
450,45.831596987391737
587,1489.5656325661112
588,45.94919158490725
589,55.0
590,0.039370983750000008
120,5600036.277238
2,4, 1, 4, 0,13, 0.00,60.00,Wednesday
7,-2.9
314,20.089601150802808
315,0.0
379,0.0
393,0.0
394,0.0
396,0.0
397,939.294062750323
448,0.0395272178125
449,55.0
450,45.85628562158658
587,1497.905496675003
588,45.934485268902538
589,55.0
590,0.0395272178125
120,5687659.788030011
2,4, 1, 4, 0,14, 0.00,60.00,Wednesday
7,-3.5
314,20.091757629052876
315,0.0
379,0.0
393,0.0
394,0.0
396,0.0
397,1011.5822439791417
448,0.04366742046875
449,55.0
450,46.07168786388161
587,1647.0134268064999
588,45.97716500538119
589,54.99999999999999
590,0.04366742046875
120,6181248.3365034
2,4, 1, 4, 0,15, 0.00,60.00,Wednesday
7,-4.2
314,20.08886280369298
315,0.0
379,0.0
393,0.0
394,0.0
396,0.0
397,1056.5542291575036
448,0.04647963359375
449,55.0
450,46.21674235723174
587,1733.5656102005703
588,46.0776570411915
589,55.00000000000001
590,0.04647963359375
120,6485636.196722053
2,4, 1, 4, 0,16, 0.00,60.00,Wednesday
7,-4.8
314,20.09704983574065
315,0.0
379,0.0
393,0.0
394,0.0
396,0.0
397,1102.754542055127
448,0.0492137296875
449,55.0
450,46.354268470009397
587,1810.2956326661485
588,46.20041888809014
589,55.0
590,0.0492137296875
120,6725864.277598135
2,4, 1, 4, 0,17, 0.00,60.00,Wednesday
7,-5.1
314,20.096313771431885
315,0.0
379,0.0
393,0.0
394,0.0
396,0.0
397,1104.8924730350707
448,0.049369963749999998
449,55.0
450,46.366038340544879
587,1795.2645864353851
588,46.301140076047158
589,55.0
590,0.049369963749999998
120,6693352.511167387
2,4, 1, 4, 0,18, 0.00,60.00,Wednesday
7,-5.5
314,20.084627107334538
315,0.0
379,0.0
393,0.0
394,0.0
396,0.0
397,996.5507369554208
448,0.042964367187500008
449,55.0
450,46.048562719594027
587,1564.810112997239
588,46.28735150746921
589,55.0
590,0.042964367187500008
120,5993316.40679006
2,4, 1, 4, 0,19, 0.00,60.00,Wednesday
7,-5.8
314,20.6253097604249
315,0.0
379,0.0
393,0.0
394,0.0
396,0.0
397,452.648397719748
448,0.017998164000000005
449,55.0
450,49.2526648705776
587,664.4842361823501
588,46.15896580579329
589,51.45812759056297
590,0.017998164000000005
120,2744943.25025646
2,4, 1, 4, 0,20, 0.00,60.00,Wednesday
7,-5.9
314,20.569475762033343
315,0.0
379,0.0
393,0.0
394,0.0
396,0.0
397,493.16303702064826
448,0.019997960000000003
449,55.0
450,48.616719358044289
587,749.3388955773197
588,46.03739792348275
589,52.01330054548994
590,0.019997960000000003
120,2985620.0240783507
2,4, 1, 4, 0,21, 0.00,60.00,Wednesday
7,-6.1
314,19.04190159456217
315,0.0
379,0.0
393,0.0
394,0.0
396,0.0
397,0.0
448,0.0
449,55.0
450,55.0
587,0.0
588,45.96820319291037
589,45.96820319291037
590,0.0
120,259200.0
2,4, 1, 4, 0,22, 0.00,60.00,Wednesday
7,-6.2
314,18.726715428557236
315,0.0
379,0.0
393,0.0
394,0.0
396,0.0
397,0.0
448,0.0
449,55.0
450,55.0
587,0.0
588,45.968203192910369
589,45.968203192910369
590,0.0
120,324000.0
2,4, 1, 4, 0,23, 0.00,60.00,Wednesday
7,-6.2
314,18.326315892559927
315,0.0
379,0.0
393,0.0
394,0.0
396,0.0
397,0.0
448,0.0
449,55.0
450,55.0
587,0.0
588,45.96820319291037
589,45.96820319291037
590,0.0
120,216000.0
2,4, 1, 4, 0,24, 0.00,60.00,Wednesday
7,-6.3
314,17.89575276202323
315,0.0
379,0.0
393,0.0
394,0.0
396,0.0
397,0.0
448,0.0
449,55.0
450,55.0
587,0.0
588,45.96820319291037
589,45.96820319291037
590,0.0
120,57600.0
2,5, 1, 5, 0, 1, 0.00,60.00,Thursday
7,-6.3
314,17.42162241941699
315,0.0
379,0.0
393,0.0
394,0.0
396,0.0
397,0.0
448,0.0
449,55.0
450,55.0
587,0.0
588,45.96820319291037
589,45.96820319291037
590,0.0
120,43200.0
2,5, 1, 5, 0, 2, 0.00,60.00,Thursday
7,-6.4
314,17.270490017027723
315,0.0
379,0.0
393,0.0
394,0.0
396,0.0
397,0.0
448,0.0
449,55.0
450,55.0
587,0.0
588,45.96820319291037
589,45.96820319291037
590,0.0
120,43200.0
2,5, 1, 5, 0, 3, 0.00,60.00,Thursday
7,-6.5
314,17.163462172123518
315,0.0
379,0.0
393,0.0
394,0.0
396,0.0
397,0.0
448,0.0
449,55.0
450,55.0
587,0.0
588,45.96820319291037
589,45.96820319291037
590,0.0
120,43200.0
2,5, 1, 5, 0, 4, 0.00,60.00,Thursday
7,-6.6
314,17.042848871580387
315,0.0
379,0.0
393,0.0
394,0.0
396,0.0
397,0.0
448,0.0
449,55.0
450,55.0
587,0.0
588,45.96820319291037
589,45.96820319291037
590,0.0
120,43200.0
2,5, 1, 5, 0, 5, 0.00,60.00,Thursday
7,-6.4
314,16.935690883566239
315,0.0
379,0.0
393,0.0
394,0.0
396,0.0
397,0.0
448,0.0
449,55.0
450,55.0
587,0.0
588,45.96820319291037
589,45.96820319291037
590,0.0
120,43200.0
2,5, 1, 5, 0, 6, 0.00,60.00,Thursday
7,-6.3
314,20.15312146217424
315,0.0
379,0.0
393,0.0
394,0.0
396,0.0
397,884.1134893656862
448,0.031814936363636369
449,55.0
450,46.31689727148546
587,1210.2022565683262
588,45.891076907578099
589,54.16845304426269
590,0.031814936363636369
120,4399928.123645976
2,5, 1, 5, 0, 7, 0.00,60.00,Thursday
7,-6.1
314,20.406885921401768
315,0.0
379,0.0
393,0.0
394,0.0
396,0.0
397,769.6758677557989
448,0.029996940000000004
449,55.0
450,45.303245565883759
587,1159.1184140211635
588,45.756022860591979
589,55.0
590,0.029996940000000004
120,4374426.290476188
2,5, 1, 5, 0, 8, 0.00,60.00,Thursday
7,-5.8
314,20.66581761831957
315,0.0
379,0.0
393,0.0
394,0.0
396,0.0
397,759.6104491244074
448,0.029996940000000004
449,55.0
450,45.392513181031088
587,1171.6532245691726
588,45.65601302451147
589,55.0
590,0.029996940000000004
120,4570751.608449021
2,5, 1, 5, 0, 9, 0.00,60.00,Thursday
7,-5.6
314,19.56275507726678
315,0.0
379,0.0
393,0.0
394,0.0
396,0.0
397,1096.6086591511907
448,0.04989074395833333
449,55.0
450,46.27776745981963
587,1915.9100448029683
588,45.81301592761152
589,55.0
590,0.04989074395833333
120,7199676.161290686
2,5, 1, 5, 0,10, 0.00,60.00,Thursday
7,-5.3
314,19.499406588293579
315,0.0
379,0.0
393,0.0
394,0.0
396,0.0
397,1149.6371386137466
448,0.0499949
449,55.0
450,46.11003223987185
587,1881.3193646542684
588,45.99798353989389
589,54.99999999999999
590,0.0499949
120,7003149.712755366
2,5, 1, 5, 0,11, 0.00,60.00,Thursday
7,-4.9
314,19.88833638806492
315,0.0
379,0.0
393,0.0
394,0.0
396,0.0
397,1146.8608070495343
448,0.0499949
449,55.0
450,46.2375423171719
587,1858.854598526873
588,46.10552201237901