Program Version,EnergyPlus, Version 8.9.0-40101eaafd, YMD=2018.11.20 16:28
1,5,Environment Title[],Latitude[deg],Longitude[deg],Time Zone[],Elevation[m]
2,8,Day of Simulation[],Month[],Day of Month[],DST Indicator[1=yes 0=no],Hour[],StartMinute[],EndMinute[],DayType
3,5,Cumulative Day of Simulation[],Month[],Day of Month[],DST Indicator[1=yes 0=no],DayType  ! When Daily Meters Requested
4,2,Cumulative Days of Simulation[],Month[]  ! When Monthly Meters Requested
5,1,Cumulative Days of Simulation[] ! When Run Period Meters Requested
6,1,Calendar Year of Simulation[] ! When Annual Meters Requested
347,1,DistrictHeating:Facility [J] !Hourly
End of Data Dictionary
1,ANNUAL SIM 1,  59.65,  17.95,   1.00,  61.00
2,1, 1, 1, 0, 1, 0.00,60.00,Sunday
347,4317112.797660516
2,1, 1, 1, 0, 2, 0.00,60.00,Sunday
347,3936939.083658117
2,1, 1, 1, 0, 3, 0.00,60.00,Sunday
347,3642134.741950001
2,1, 1, 1, 0, 4, 0.00,60.00,Sunday
347,3444600.8613971427
2,1, 1, 1, 0, 5, 0.00,60.00,Sunday
347,3313740.2251144999
2,1, 1, 1, 0, 6, 0.00,60.00,Sunday
347,3225228.097480909
2,1, 1, 1, 0, 7, 0.00,60.00,Sunday
347,3176998.521145139
2,1, 1, 1, 0, 8, 0.00,60.00,Sunday
347,3230933.8530772465
2,1, 1, 1, 0, 9, 0.00,60.00,Sunday
347,3395597.6512215475
2,1, 1, 1, 0,10, 0.00,60.00,Sunday
347,3430431.8242948406
2,1, 1, 1, 0,11, 0.00,60.00,Sunday
347,3150661.6977429485
2,1, 1, 1, 0,12, 0.00,60.00,Sunday
347,2920611.5861733227
2,1, 1, 1, 0,13, 0.00,60.00,Sunday
347,2835591.529854068
2,1, 1, 1, 0,14, 0.00,60.00,Sunday
347,2874796.9773919035
2,1, 1, 1, 0,15, 0.00,60.00,Sunday
347,3526182.8045391167
2,1, 1, 1, 0,16, 0.00,60.00,Sunday
347,4076193.6151227729
2,1, 1, 1, 0,17, 0.00,60.00,Sunday
347,4271514.42204515
2,1, 1, 1, 0,18, 0.00,60.00,Sunday
347,4363526.093403384
2,1, 1, 1, 0,19, 0.00,60.00,Sunday
347,4426994.468650506
2,1, 1, 1, 0,20, 0.00,60.00,Sunday
347,4466177.667547021
2,1, 1, 1, 0,21, 0.00,60.00,Sunday
347,4473250.159344172
2,1, 1, 1, 0,22, 0.00,60.00,Sunday
347,4468577.322335444
2,1, 1, 1, 0,23, 0.00,60.00,Sunday
347,4466960.235981927
2,1, 1, 1, 0,24, 0.00,60.00,Sunday
347,4481725.868168537
2,2, 1, 2, 0, 1, 0.00,60.00,Monday
347,4506016.8137596859
2,2, 1, 2, 0, 2, 0.00,60.00,Monday
347,4518354.267403021
2,2, 1, 2, 0, 3, 0.00,60.00,Monday
347,4537560.495660062
2,2, 1, 2, 0, 4, 0.00,60.00,Monday
347,4572881.056026459
2,2, 1, 2, 0, 5, 0.00,60.00,Monday
347,4582806.591984759
2,2, 1, 2, 0, 6, 0.00,60.00,Monday
347,4328508.919913638
2,2, 1, 2, 0, 7, 0.00,60.00,Monday
347,4345504.106992721
2,2, 1, 2, 0, 8, 0.00,60.00,Monday
347,3331246.368921268
2,2, 1, 2, 0, 9, 0.00,60.00,Monday
347,555141.8639338014
2,2, 1, 2, 0,10, 0.00,60.00,Monday
347,704972.5516975471
2,2, 1, 2, 0,11, 0.00,60.00,Monday
347,313979.89455302836
2,2, 1, 2, 0,12, 0.00,60.00,Monday
347,55090.927599728995
2,2, 1, 2, 0,13, 0.00,60.00,Monday
347,671.8784053408689
2,2, 1, 2, 0,14, 0.00,60.00,Monday
347,0.0
2,2, 1, 2, 0,15, 0.00,60.00,Monday
347,501422.9965252955
2,2, 1, 2, 0,16, 0.00,60.00,Monday
347,1013586.0673385923
2,2, 1, 2, 0,17, 0.00,60.00,Monday
347,1153934.0173933414
2,2, 1, 2, 0,18, 0.00,60.00,Monday
347,3141886.3782103799
2,2, 1, 2, 0,19, 0.00,60.00,Monday
347,3960929.8522667146
2,2, 1, 2, 0,20, 0.00,60.00,Monday
347,3837393.007465338
2,2, 1, 2, 0,21, 0.00,60.00,Monday
347,4339651.267035363
2,2, 1, 2, 0,22, 0.00,60.00,Monday
347,4298980.402912659
2,2, 1, 2, 0,23, 0.00,60.00,Monday
347,4787338.553314943
2,2, 1, 2, 0,24, 0.00,60.00,Monday
347,4942478.899974075
2,3, 1, 3, 0, 1, 0.00,60.00,Tuesday
347,4860107.491244294
2,3, 1, 3, 0, 2, 0.00,60.00,Tuesday
347,4828551.3751620049
2,3, 1, 3, 0, 3, 0.00,60.00,Tuesday
347,4829802.220711311
2,3, 1, 3, 0, 4, 0.00,60.00,Tuesday
347,4854175.311407667
2,3, 1, 3, 0, 5, 0.00,60.00,Tuesday
347,4874683.329093019
2,3, 1, 3, 0, 6, 0.00,60.00,Tuesday
347,4540932.139273737
2,3, 1, 3, 0, 7, 0.00,60.00,Tuesday
347,4438737.227886331
2,3, 1, 3, 0, 8, 0.00,60.00,Tuesday
347,3336897.5859180467
2,3, 1, 3, 0, 9, 0.00,60.00,Tuesday
347,569409.0777335824
2,3, 1, 3, 0,10, 0.00,60.00,Tuesday
347,904785.7705548189
2,3, 1, 3, 0,11, 0.00,60.00,Tuesday
347,851850.7645335018
2,3, 1, 3, 0,12, 0.00,60.00,Tuesday
347,624701.3775608481
2,3, 1, 3, 0,13, 0.00,60.00,Tuesday
347,420171.097058553
2,3, 1, 3, 0,14, 0.00,60.00,Tuesday
347,408688.71094883189
2,3, 1, 3, 0,15, 0.00,60.00,Tuesday
347,669921.3459340083
2,3, 1, 3, 0,16, 0.00,60.00,Tuesday
347,893351.6172604276
2,3, 1, 3, 0,17, 0.00,60.00,Tuesday
347,1003649.4827251664
2,3, 1, 3, 0,18, 0.00,60.00,Tuesday
347,2940893.764110304
2,3, 1, 3, 0,19, 0.00,60.00,Tuesday
347,3693402.364454652
2,3, 1, 3, 0,20, 0.00,60.00,Tuesday
347,3521075.7480504189
2,3, 1, 3, 0,21, 0.00,60.00,Tuesday
347,3976090.0976049697
2,3, 1, 3, 0,22, 0.00,60.00,Tuesday
347,3876014.3732152048
2,3, 1, 3, 0,23, 0.00,60.00,Tuesday
347,4332408.273258418
2,3, 1, 3, 0,24, 0.00,60.00,Tuesday
347,4461941.377608719
2,4, 1, 4, 0, 1, 0.00,60.00,Wednesday
347,4347834.010259341
2,4, 1, 4, 0, 2, 0.00,60.00,Wednesday
347,4324857.058826277
2,4, 1, 4, 0, 3, 0.00,60.00,Wednesday
347,4405559.45761681
2,4, 1, 4, 0, 4, 0.00,60.00,Wednesday
347,4515436.707066619
2,4, 1, 4, 0, 5, 0.00,60.00,Wednesday
347,4636850.729549752
2,4, 1, 4, 0, 6, 0.00,60.00,Wednesday
347,4484732.52772281
2,4, 1, 4, 0, 7, 0.00,60.00,Wednesday
347,4610833.018314875
2,4, 1, 4, 0, 8, 0.00,60.00,Wednesday
347,3680960.78653736
2,4, 1, 4, 0, 9, 0.00,60.00,Wednesday
347,971376.6041348865
2,4, 1, 4, 0,10, 0.00,60.00,Wednesday
347,1200745.3501859045
2,4, 1, 4, 0,11, 0.00,60.00,Wednesday
347,529525.3695388438
2,4, 1, 4, 0,12, 0.00,60.00,Wednesday
347,450143.73000454696
2,4, 1, 4, 0,13, 0.00,60.00,Wednesday
347,504046.12516973979
2,4, 1, 4, 0,14, 0.00,60.00,Wednesday
347,612705.4611071737
2,4, 1, 4, 0,15, 0.00,60.00,Wednesday
347,1363452.7698208465
2,4, 1, 4, 0,16, 0.00,60.00,Wednesday
347,2058130.005770571
2,4, 1, 4, 0,17, 0.00,60.00,Wednesday
347,2301752.45007623
2,4, 1, 4, 0,18, 0.00,60.00,Wednesday
347,4396899.079007717
2,4, 1, 4, 0,19, 0.00,60.00,Wednesday
347,5274567.197837504
2,4, 1, 4, 0,20, 0.00,60.00,Wednesday
347,5175235.638745141
2,4, 1, 4, 0,21, 0.00,60.00,Wednesday
347,5693988.336718253
2,4, 1, 4, 0,22, 0.00,60.00,Wednesday
347,5662658.133449249
2,4, 1, 4, 0,23, 0.00,60.00,Wednesday
347,6190981.001251352
2,4, 1, 4, 0,24, 0.00,60.00,Wednesday
347,6376176.780604044
2,5, 1, 5, 0, 1, 0.00,60.00,Thursday
347,6330617.024543322
2,5, 1, 5, 0, 2, 0.00,60.00,Thursday
347,6315633.839729583
2,5, 1, 5, 0, 3, 0.00,60.00,Thursday
347,6317244.205271376
2,5, 1, 5, 0, 4, 0.00,60.00,Thursday
347,6330955.487553595
2,5, 1, 5, 0, 5, 0.00,60.00,Thursday
347,6347165.948970389
2,5, 1, 5, 0, 6, 0.00,60.00,Thursday
347,6079485.315883838
2,5, 1, 5, 0, 7, 0.00,60.00,Thursday
347,6068780.328785101
2,5, 1, 5, 0, 8, 0.00,60.00,Thursday
347,5007910.617532636
2,5, 1, 5, 0, 9, 0.00,60.00,Thursday
347,2140093.6700814145
2,5, 1, 5, 0,10, 0.00,60.00,Thursday
347,2181249.58588701
2,5, 1, 5, 0,11, 0.00,60.00,Thursday
347,1614674.8364921963
2,5, 1, 5, 0,12, 0.00,60.00,Thursday
347,1205307.4200655365
2,5, 1, 5, 0,13, 0.00,60.00,Thursday
347,966578.9536807977
2,5, 1, 5, 0,14, 0.00,60.00,Thursday
347,891641.0688599889
2,5, 1, 5, 0,15, 0.00,60.00,Thursday
347,1592480.4044317173
2,5, 1, 5, 0,16, 0.00,60.00,Thursday
347,2259867.173323316
2,5, 1, 5, 0,17, 0.00,60.00,Thursday
347,2485054.6044718369
2,5, 1, 5, 0,18, 0.00,60.00,Thursday
347,4543442.360214324
2,5, 1, 5, 0,19, 0.00,60.00,Thursday
347,5398300.130544586
2,5, 1, 5, 0,20, 0.00,60.00,Thursday
347,5235700.835387339
2,5, 1, 5, 0,21, 0.00,60.00,Thursday
347,5591489.093947305
2,5, 1, 5, 0,22, 0.00,60.00,Thursday
347,5372204.692261132
2,5, 1, 5, 0,23, 0.00,60.00,Thursday
347,5677251.9748749
2,5, 1, 5, 0,24, 0.00,60.00,Thursday
347,5712391.518118189
2,6, 1, 6, 0, 1, 0.00,60.00,Friday
347,5536444.947905622
2,6, 1, 6, 0, 2, 0.00,60.00,Friday
347,5340344.774044263
2,6, 1, 6, 0, 3, 0.00,60.00,Friday
347,5129078.936839925
2,6, 1, 6, 0, 4, 0.00,60.00,Friday
347,4874432.908766594
2,6, 1, 6, 0, 5, 0.00,60.00,Friday
347,4691452.125715419
2,6, 1, 6, 0, 6, 0.00,60.00,Friday
347,4346083.233988724
2,6, 1, 6, 0, 7, 0.00,60.00,Friday
347,4304008.010392345
2,6, 1, 6, 0, 8, 0.00,60.00,Friday
347,3291917.0325064419
2,6, 1, 6, 0, 9, 0.00,60.00,Friday
347,594758.2130249748
2,6, 1, 6, 0,10, 0.00,60.00,Friday
347,829595.2887545172
2,6, 1, 6, 0,11, 0.00,60.00,Friday
347,530297.7563743008
2,6, 1, 6, 0,12, 0.00,60.00,Friday
347,431488.691338441
2,6, 1, 6, 0,13, 0.00,60.00,Friday
347,481679.55474229747
2,6, 1, 6, 0,14, 0.00,60.00,Friday
347,632792.2057772122
2,6, 1, 6, 0,15, 0.00,60.00,Friday
347,889249.851217493
2,6, 1, 6, 0,16, 0.00,60.00,Friday
347,1107193.3493448692
2,6, 1, 6, 0,17, 0.00,60.00,Friday
347,1234036.6666094978
2,6, 1, 6, 0,18, 0.00,60.00,Friday
347,3297918.846383233
2,6, 1, 6, 0,19, 0.00,60.00,Friday
347,4214641.262485215
2,6, 1, 6, 0,20, 0.00,60.00,Friday
347,4133776.8436524404
2,6, 1, 6, 0,21, 0.00,60.00,Friday
347,4529439.655826491
2,6, 1, 6, 0,22, 0.00,60.00,Friday
347,4333269.091143536
2,6, 1, 6, 0,23, 0.00,60.00,Friday
347,4738486.82735123
2,6, 1, 6, 0,24, 0.00,60.00,Friday
347,4948298.302570505
2,7, 1, 7, 0, 1, 0.00,60.00,Saturday
347,4955121.688675198
2,7, 1, 7, 0, 2, 0.00,60.00,Saturday
347,4989096.709412172
2,7, 1, 7, 0, 3, 0.00,60.00,Saturday
347,4987309.096072565
2,7, 1, 7, 0, 4, 0.00,60.00,Saturday
347,4972735.6100024529
2,7, 1, 7, 0, 5, 0.00,60.00,Saturday
347,4932084.9602680229
2,7, 1, 7, 0, 6, 0.00,60.00,Saturday
347,4881483.794793396
2,7, 1, 7, 0, 7, 0.00,60.00,Saturday
347,4569449.05033875
2,7, 1, 7, 0, 8, 0.00,60.00,Saturday
347,4592059.931006072
2,7, 1, 7, 0, 9, 0.00,60.00,Saturday
347,3689664.9785868285
2,7, 1, 7, 0,10, 0.00,60.00,Saturday
347,3834835.4897076387
2,7, 1, 7, 0,11, 0.00,60.00,Saturday
347,3729888.0479492277
2,7, 1, 7, 0,12, 0.00,60.00,Saturday
347,3508759.8385323069
2,7, 1, 7, 0,13, 0.00,60.00,Saturday
347,4103765.824533536
2,7, 1, 7, 0,14, 0.00,60.00,Saturday
347,3961727.389129375
2,7, 1, 7, 0,15, 0.00,60.00,Saturday
347,4020557.021920377
2,7, 1, 7, 0,16, 0.00,60.00,Saturday
347,4136496.7371324279
2,7, 1, 7, 0,17, 0.00,60.00,Saturday
347,4175608.4199063975
2,7, 1, 7, 0,18, 0.00,60.00,Saturday
347,4658082.862519064
2,7, 1, 7, 0,19, 0.00,60.00,Saturday
347,4920244.658778376
2,7, 1, 7, 0,20, 0.00,60.00,Saturday
347,4742175.00143272
2,7, 1, 7, 0,21, 0.00,60.00,Saturday
347,4464335.104909455
2,7, 1, 7, 0,22, 0.00,60.00,Saturday
347,4438520.82284993
2,7, 1, 7, 0,23, 0.00,60.00,Saturday
347,4435592.36855237
2,7, 1, 7, 0,24, 0.00,60.00,Saturday
347,4452696.522969306
2,8, 1, 8, 0, 1, 0.00,60.00,Sunday
347,4476397.267517639
2,8, 1, 8, 0, 2, 0.00,60.00,Sunday
347,4491996.722978794
2,8, 1, 8, 0, 3, 0.00,60.00,Sunday
347,4503562.357274501
2,8, 1, 8, 0, 4, 0.00,60.00,Sunday
347,4881845.116456124
2,8, 1, 8, 0, 5, 0.00,60.00,Sunday
347,4777188.034271657
2,8, 1, 8, 0, 6, 0.00,60.00,Sunday
347,4566975.528315125
2,8, 1, 8, 0, 7, 0.00,60.00,Sunday
347,4654524.115902913
2,8, 1, 8, 0, 8, 0.00,60.00,Sunday
347,4709648.232896495
2,8, 1, 8, 0, 9, 0.00,60.00,Sunday
347,4723282.265043648
2,8, 1, 8, 0,10, 0.00,60.00,Sunday
347,4683705.538207644
2,8, 1, 8, 0,11, 0.00,60.00,Sunday
347,4601901.851805382
2,8, 1, 8, 0,12, 0.00,60.00,Sunday
347,4523291.33228268
2,8, 1, 8, 0,13, 0.00,60.00,Sunday
347,4501012.001442035
2,8, 1, 8, 0,14, 0.00,60.00,Sunday
347,4597287.405655765
2,8, 1, 8, 0,15, 0.00,60.00,Sunday
347,4779401.694014745
2,8, 1, 8, 0,16, 0.00,60.00,Sunday
347,4943087.268820667
2,8, 1, 8, 0,17, 0.00,60.00,Sunday
347,5063230.160981821
2,8, 1, 8, 0,18, 0.00,60.00,Sunday
347,5141574.558966694
2,8, 1, 8, 0,19, 0.00,60.00,Sunday
347,5210330.634451005
2,8, 1, 8, 0,20, 0.00,60.00,Sunday
347,5286852.802750158
2,8, 1, 8, 0,21, 0.00,60.00,Sunday
347,5389615.886240018
2,8, 1, 8, 0,22, 0.00,60.00,Sunday
347,5506445.663602103
2,8, 1, 8, 0,23, 0.00,60.00,Sunday
347,5633295.235778965
2,8, 1, 8, 0,24, 0.00,60.00,Sunday
347,5784540.953715838
2,9, 1, 9, 0, 1, 0.00,60.00,Monday
347,5928314.590387186
2,9, 1, 9, 0, 2, 0.00,60.00,Monday
347,6055463.223493836
2,9, 1, 9, 0, 3, 0.00,60.00,Monday
347,6125463.131608158
2,9, 1, 9, 0, 4, 0.00,60.00,Monday
347,6179864.044774134
2,9, 1, 9, 0, 5, 0.00,60.00,Monday
347,6221367.336437834
2,9, 1, 9, 0, 6, 0.00,60.00,Monday
347,5985033.114792982
2,9, 1, 9, 0, 7, 0.00,60.00,Monday
347,6036286.089055703
2,9, 1, 9, 0, 8, 0.00,60.00,Monday
347,5088316.626741549
2,9, 1, 9, 0, 9, 0.00,60.00,Monday
347,2248558.8812863256
2,9, 1, 9, 0,10, 0.00,60.00,Monday
347,2303254.621141242
2,9, 1, 9, 0,11, 0.00,60.00,Monday
347,1749240.1866756683
2,9, 1, 9, 0,12, 0.00,60.00,Monday
347,1379638.1506483693
2,9, 1, 9, 0,13, 0.00,60.00,Monday
347,1113122.5391309753
2,9, 1, 9, 0,14, 0.00,60.00,Monday
347,948850.4369671648
2,9, 1, 9, 0,15, 0.00,60.00,Monday
347,1619377.57368154
2,9, 1, 9, 0,16, 0.00,60.00,Monday
347,2288412.988999063
2,9, 1, 9, 0,17, 0.00,60.00,Monday
347,2478818.7249125887
2,9, 1, 9, 0,18, 0.00,60.00,Monday
347,4580556.416311309
2,9, 1, 9, 0,19, 0.00,60.00,Monday
347,5515069.786737765
2,9, 1, 9, 0,20, 0.00,60.00,Monday
347,5557878.0566666279
2,9, 1, 9, 0,21, 0.00,60.00,Monday
347,6175904.188342875
2,9, 1, 9, 0,22, 0.00,60.00,Monday
347,6217694.549529582
2,9, 1, 9, 0,23, 0.00,60.00,Monday
347,6836133.032651251
2,9, 1, 9, 0,24, 0.00,60.00,Monday
347,7150621.39393057
2,10, 1,10, 0, 1, 0.00,60.00,Tuesday
347,7183308.137832067
2,10, 1,10, 0, 2, 0.00,60.00,Tuesday
347,7278562.043570412
2,10, 1,10, 0, 3, 0.00,60.00,Tuesday
347,7367209.842225523
2,10, 1,10, 0, 4, 0.00,60.00,Tuesday
347,7490934.147939291
2,10, 1,10, 0, 5, 0.00,60.00,Tuesday
347,7578559.0117505029
2,10, 1,10, 0, 6, 0.00,60.00,Tuesday
347,7371404.243537819
2,10, 1,10, 0, 7, 0.00,60.00,Tuesday
347,7417827.718442169
2,10, 1,10, 0, 8, 0.00,60.00,Tuesday
347,6462646.027826439
2,10, 1,10, 0, 9, 0.00,60.00,Tuesday
347,3663614.200653875
2,10, 1,10, 0,10, 0.00,60.00,Tuesday
347,3673542.7672566946
2,10, 1,10, 0,11, 0.00,60.00,Tuesday
347,3083052.899650323
2,10, 1,10, 0,12, 0.00,60.00,Tuesday
347,2623023.1458255967
2,10, 1,10, 0,13, 0.00,60.00,Tuesday
347,2296148.5875927519
2,10, 1,10, 0,14, 0.00,60.00,Tuesday
347,2281156.806214355
2,10, 1,10, 0,15, 0.00,60.00,Tuesday
347,2935351.69735969
2,10, 1,10, 0,16, 0.00,60.00,Tuesday
347,3451300.787603346
2,10, 1,10, 0,17, 0.00,60.00,Tuesday
347,3619067.5803719346
2,10, 1,10, 0,18, 0.00,60.00,Tuesday
347,5553812.196247936
2,10, 1,10, 0,19, 0.00,60.00,Tuesday
347,6241439.146347783
2,10, 1,10, 0,20, 0.00,60.00,Tuesday
347,5967428.501157081
2,10, 1,10, 0,21, 0.00,60.00,Tuesday
347,6325328.955330255
2,10, 1,10, 0,22, 0.00,60.00,Tuesday
347,6065574.546053856
2,10, 1,10, 0,23, 0.00,60.00,Tuesday
347,6443552.266231805
2,10, 1,10, 0,24, 0.00,60.00,Tuesday
347,6504382.998502257
2,11, 1,11, 0, 1, 0.00,60.00,Wednesday
347,6336432.7756603439
2,11, 1,11, 0, 2, 0.00,60.00,Wednesday
347,6232838.854322162
2,11, 1,11, 0, 3, 0.00,60.00,Wednesday
347,6062868.442352892
2,11, 1,11, 0, 4, 0.00,60.00,Wednesday
347,5876458.4195515629
2,11, 1,11, 0, 5, 0.00,60.00,Wednesday
347,5658866.981674707
2,11, 1,11, 0, 6, 0.00,60.00,Wednesday
347,5203820.799972414
2,11, 1,11, 0, 7, 0.00,60.00,Wednesday
347,5050038.664944885
2,11, 1,11, 0, 8, 0.00,60.00,Wednesday
347,3901054.7977964088
2,11, 1,11, 0, 9, 0.00,60.00,Wednesday
347,1026581.7736791322
2,11, 1,11, 0,10, 0.00,60.00,Wednesday
347,1165755.2342306753
2,11, 1,11, 0,11, 0.00,60.00,Wednesday
347,1056332.727580399
2,11, 1,11, 0,12, 0.00,60.00,Wednesday
347,955698.5212055288
2,11, 1,11, 0,13, 0.00,60.00,Wednesday
347,911204.4693443072
2,11, 1,11, 0,14, 0.00,60.00,Wednesday
347,916498.6297529956
2,11, 1,11, 0,15, 0.00,60.00,Wednesday
347,918103.6711594586
2,11, 1,11, 0,16, 0.00,60.00,Wednesday
347,1226174.7582893037
2,11, 1,11, 0,17, 0.00,60.00,Wednesday
347,1066930.8018486149
2,11, 1,11, 0,18, 0.00,60.00,Wednesday
347,2678200.0857036348
2,11, 1,11, 0,19, 0.00,60.00,Wednesday
347,3431617.446771981
2,11, 1,11, 0,20, 0.00,60.00,Wednesday
347,3279282.3163093847
2,11, 1,11, 0,21, 0.00,60.00,Wednesday
347,3776031.6056384325
2,11, 1,11, 0,22, 0.00,60.00,Wednesday
347,3747562.513016455
2,11, 1,11, 0,23, 0.00,60.00,Wednesday
347,4292823.918303288
2,11, 1,11, 0,24, 0.00,60.00,Wednesday
347,4516305.947387236
2,12, 1,12, 0, 1, 0.00,60.00,Thursday
347,4461471.575018296
2,12, 1,12, 0, 2, 0.00,60.00,Thursday
347,4458089.532758348
2,12, 1,12, 0, 3, 0.00,60.00,Thursday
347,4462942.6291782869
2,12, 1,12, 0, 4, 0.00,60.00,Thursday
347,4473316.237247975
2,12, 1,12, 0, 5, 0.00,60.00,Thursday
347,4491765.157588547
2,12, 1,12, 0, 6, 0.00,60.00,Thursday
347,4177600.4904752478
2,12, 1,12, 0, 7, 0.00,60.00,Thursday
347,4147093.960200407
2,12, 1,12, 0, 8, 0.00,60.00,Thursday
347,3109825.737657764
2,12, 1,12, 0, 9, 0.00,60.00,Thursday
347,287804.74591140888
2,12, 1,12, 0,10, 0.00,60.00,Thursday
347,433311.5017582482
2,12, 1,12, 0,11, 0.00,60.00,Thursday
347,234748.4748357712
2,12, 1,12, 0,12, 0.00,60.00,Thursday
347,68865.86556039496
2,12, 1,12, 0,13, 0.00,60.00,Thursday
347,0.0
2,12, 1,12, 0,14, 0.00,60.00,Thursday
347,0.0
2,12, 1,12, 0,15, 0.00,60.00,Thursday
347,152881.2825469638
2,12, 1,12, 0,16, 0.00,60.00,Thursday
347,453500.2377234572
2,12, 1,12, 0,17, 0.00,60.00,Thursday
347,572624.586714522
2,12, 1,12, 0,18, 0.00,60.00,Thursday
347,2512930.9128489925
2,12, 1,12, 0,19, 0.00,60.00,Thursday
347,3320389.072995107
2,12, 1,12, 0,20, 0.00,60.00,Thursday
347,3195921.107741167
2,12, 1,12, 0,21, 0.00,60.00,Thursday
347,3675638.2988885429
2,12, 1,12, 0,22, 0.00,60.00,Thursday
347,3613042.716897214
2,12, 1,12, 0,23, 0.00,60.00,Thursday
347,4123355.0873205715
2,12, 1,12, 0,24, 0.00,60.00,Thursday
347,4375344.033651474
2,13, 1,13, 0, 1, 0.00,60.00,Friday
347,4409593.769607784
2,13, 1,13, 0, 2, 0.00,60.00,Friday
347,4453277.331441759
2,13, 1,13, 0, 3, 0.00,60.00,Friday
347,4454078.527250769
2,13, 1,13, 0, 4, 0.00,60.00,Friday
347,4444478.506537994
2,13, 1,13, 0, 5, 0.00,60.00,Friday
347,4440619.280531762
2,13, 1,13, 0, 6, 0.00,60.00,Friday
347,4218805.5285581019
2,13, 1,13, 0, 7, 0.00,60.00,Friday
347,4299615.089172431
2,13, 1,13, 0, 8, 0.00,60.00,Friday
347,3329930.0990463558
2,13, 1,13, 0, 9, 0.00,60.00,Friday
347,533465.6677255058
2,13, 1,13, 0,10, 0.00,60.00,Friday
347,717192.2773274994
2,13, 1,13, 0,11, 0.00,60.00,Friday
347,609840.3901112012
2,13, 1,13, 0,12, 0.00,60.00,Friday
347,557482.9750906308
2,13, 1,13, 0,13, 0.00,60.00,Friday
347,625387.978949661
2,13, 1,13, 0,14, 0.00,60.00,Friday
347,739684.9083706504
2,13, 1,13, 0,15, 0.00,60.00,Friday
347,903581.3473345076
2,13, 1,13, 0,16, 0.00,60.00,Friday
347,1064832.5485326832
2,13, 1,13, 0,17, 0.00,60.00,Friday
347,1138436.1955051474
2,13, 1,13, 0,18, 0.00,60.00,Friday
347,3096687.8449955789
2,13, 1,13, 0,19, 0.00,60.00,Friday
347,3889258.739180741
2,13, 1,13, 0,20, 0.00,60.00,Friday
347,3689686.88743519
2,13, 1,13, 0,21, 0.00,60.00,Friday
347,4015136.7957982805
2,13, 1,13, 0,22, 0.00,60.00,Friday
347,3764178.885858398
2,13, 1,13, 0,23, 0.00,60.00,Friday
347,4133811.3242112707
2,13, 1,13, 0,24, 0.00,60.00,Friday
347,4284347.091911585
2,14, 1,14, 0, 1, 0.00,60.00,Saturday
347,4533955.753048982
2,14, 1,14, 0, 2, 0.00,60.00,Saturday
347,4505392.45046951
2,14, 1,14, 0, 3, 0.00,60.00,Saturday
347,4155046.8317761404
2,14, 1,14, 0, 4, 0.00,60.00,Saturday
347,4142258.829895138
2,14, 1,14, 0, 5, 0.00,60.00,Saturday
347,4192147.4610851404
2,14, 1,14, 0, 6, 0.00,60.00,Saturday
347,4313969.828726194
2,14, 1,14, 0, 7, 0.00,60.00,Saturday
347,4181783.6458566018
2,14, 1,14, 0, 8, 0.00,60.00,Saturday
347,4306537.9626943389
2,14, 1,14, 0, 9, 0.00,60.00,Saturday
347,3275367.3868637254
2,14, 1,14, 0,10, 0.00,60.00,Saturday
347,2815193.4508462387
2,14, 1,14, 0,11, 0.00,60.00,Saturday
347,2425032.478977472
2,14, 1,14, 0,12, 0.00,60.00,Saturday
347,2268117.142756457
2,14, 1,14, 0,13, 0.00,60.00,Saturday
347,2882281.0909509749
2,14, 1,14, 0,14, 0.00,60.00,Saturday
347,2630075.755741575
2,14, 1,14, 0,15, 0.00,60.00,Saturday
347,3273828.211084904
2,14, 1,14, 0,16, 0.00,60.00,Saturday
347,4073031.3133710555
2,14, 1,14, 0,17, 0.00,60.00,Saturday
347,4374689.004981022
2,14, 1,14, 0,18, 0.00,60.00,Saturday
347,5039734.156707066
2,14, 1,14, 0,19, 0.00,60.00,Saturday
347,5099276.610985728
2,14, 1,14, 0,20, 0.00,60.00,Saturday
347,5165786.833080758
2,14, 1,14, 0,21, 0.00,60.00,Saturday
347,5184441.1344454609
2,14, 1,14, 0,22, 0.00,60.00,Saturday
347,5202516.011619233
2,14, 1,14, 0,23, 0.00,60.00,Saturday
347,5183917.8952178279
2,14, 1,14, 0,24, 0.00,60.00,Saturday
347,5154271.131730672
2,15, 1,15, 0, 1, 0.00,60.00,Sunday
347,5126863.255586203
2,15, 1,15, 0, 2, 0.00,60.00,Sunday
347,5084276.289086924
2,15, 1,15, 0, 3, 0.00,60.00,Sunday
347,5013245.3224356439
2,15, 1,15, 0, 4, 0.00,60.00,Sunday
347,4905909.824013895
2,15, 1,15, 0, 5, 0.00,60.00,Sunday
347,4834142.532162407
2,15, 1,15, 0, 6, 0.00,60.00,Sunday
347,4853275.077289038
2,15, 1,15, 0, 7, 0.00,60.00,Sunday
347,4904218.432221838
2,15, 1,15, 0, 8, 0.00,60.00,Sunday
347,4929678.109014949
2,15, 1,15, 0, 9, 0.00,60.00,Sunday
347,4928563.794514149
2,15, 1,15, 0,10, 0.00,60.00,Sunday
347,4873121.243517583
2,15, 1,15, 0,11, 0.00,60.00,Sunday
347,4583191.676585478
2,15, 1,15, 0,12, 0.00,60.00,Sunday
347,4227006.485187527
2,15, 1,15, 0,13, 0.00,60.00,Sunday
347,3939566.7820993268
2,15, 1,15, 0,14, 0.00,60.00,Sunday
347,3836450.917860315
2,15, 1,15, 0,15, 0.00,60.00,Sunday
347,4527160.241463945
2,15, 1,15, 0,16, 0.00,60.00,Sunday
347,5403491.066426034
2,15, 1,15, 0,17, 0.00,60.00,Sunday
347,5786139.007296305
2,15, 1,15, 0,18, 0.00,60.00,Sunday
347,5907322.402042234
2,15, 1,15, 0,19, 0.00,60.00,Sunday
347,5970151.77068627
2,15, 1,15, 0,20, 0.00,60.00,Sunday
347,5997700.053885022
2,15, 1,15, 0,21, 0.00,60.00,Sunday
347,5944300.302817435
2,15, 1,15, 0,22, 0.00,60.00,Sunday
347,5862125.655190769
2,15, 1,15, 0,23, 0.00,60.00,Sunday
347,5759043.142429961
2,15, 1,15, 0,24, 0.00,60.00,Sunday
347,5604755.436316573
2,16, 1,16, 0, 1, 0.00,60.00,Monday
347,5408535.390516571
2,16, 1,16, 0, 2, 0.00,60.00,Monday
347,5244134.613444069
2,16, 1,16, 0, 3, 0.00,60.00,Monday
347,5154413.496638645
2,16, 1,16, 0, 4, 0.00,60.00,Monday
347,5084803.249726102
2,16, 1,16, 0, 5, 0.00,60.00,Monday
347,5056287.0114184659
2,16, 1,16, 0, 6, 0.00,60.00,Monday
347,4824413.993244633
2,16, 1,16, 0, 7, 0.00,60.00,Monday
347,4883870.089026532
2,16, 1,16, 0, 8, 0.00,60.00,Monday
347,3919266.7306135788
2,16, 1,16, 0, 9, 0.00,60.00,Monday
347,1103445.1403241899
2,16, 1,16, 0,10, 0.00,60.00,Monday
347,820140.4318849774
2,16, 1,16, 0,11, 0.00,60.00,Monday
347,463950.3081093708
2,16, 1,16, 0,12, 0.00,60.00,Monday
347,267446.334368538
2,16, 1,16, 0,13, 0.00,60.00,Monday
347,99956.02667174781
2,16, 1,16, 0,14, 0.00,60.00,Monday
347,0.0
2,16, 1,16, 0,15, 0.00,60.00,Monday
347,329994.2986469517
2,16, 1,16, 0,16, 0.00,60.00,Monday
347,1233020.4730959675
2,16, 1,16, 0,17, 0.00,60.00,Monday
347,1579920.6089556437
2,16, 1,16, 0,18, 0.00,60.00,Monday
347,3597226.2233729546
2,16, 1,16, 0,19, 0.00,60.00,Monday
347,4421096.430089652
2,16, 1,16, 0,20, 0.00,60.00,Monday
347,4356354.069102679
2,16, 1,16, 0,21, 0.00,60.00,Monday
347,4887038.904764608
2,16, 1,16, 0,22, 0.00,60.00,Monday
347,4828955.571781483
2,16, 1,16, 0,23, 0.00,60.00,Monday
347,5366701.849911741
2,16, 1,16, 0,24, 0.00,60.00,Monday
347,5576840.9968540859
2,17, 1,17, 0, 1, 0.00,60.00,Tuesday
347,5564054.64649907
2,17, 1,17, 0, 2, 0.00,60.00,Tuesday
347,5505823.248182872
2,17, 1,17, 0, 3, 0.00,60.00,Tuesday
347,5442415.412072591
2,17, 1,17, 0, 4, 0.00,60.00,Tuesday
347,5373506.7486095
2,17, 1,17, 0, 5, 0.00,60.00,Tuesday
347,5295068.037621119
2,17, 1,17, 0, 6, 0.00,60.00,Tuesday
347,4923797.804795319
2,17, 1,17, 0, 7, 0.00,60.00,Tuesday
347,4818332.180865326
2,17, 1,17, 0, 8, 0.00,60.00,Tuesday
347,3707041.0574768979
2,17, 1,17, 0, 9, 0.00,60.00,Tuesday
347,879428.9371594396
2,17, 1,17, 0,10, 0.00,60.00,Tuesday
347,1117616.2888372283
2,17, 1,17, 0,11, 0.00,60.00,Tuesday
347,1029859.3848210666
2,17, 1,17, 0,12, 0.00,60.00,Tuesday
347,923018.5901878025
2,17, 1,17, 0,13, 0.00,60.00,Tuesday
347,871010.9185457588
2,17, 1,17, 0,14, 0.00,60.00,Tuesday
347,893879.2876981637
2,17, 1,17, 0,15, 0.00,60.00,Tuesday
347,965112.8414484284
2,17, 1,17, 0,16, 0.00,60.00,Tuesday
347,1040904.2880271431
2,17, 1,17, 0,17, 0.00,60.00,Tuesday
347,1068789.8226085562
2,17, 1,17, 0,18, 0.00,60.00,Tuesday
347,3002179.9752554737
2,17, 1,17, 0,19, 0.00,60.00,Tuesday
347,3788095.158469864
2,17, 1,17, 0,20, 0.00,60.00,Tuesday
347,3645639.956932975
2,17, 1,17, 0,21, 0.00,60.00,Tuesday
347,4120620.9531129228
2,17, 1,17, 0,22, 0.00,60.00,Tuesday
347,4057264.509514117
2,17, 1,17, 0,23, 0.00,60.00,Tuesday
347,4541947.702936215
2,17, 1,17, 0,24, 0.00,60.00,Tuesday
347,4700305.660791979
2,18, 1,18, 0, 1, 0.00,60.00,Wednesday
347,4614150.432888018
2,18, 1,18, 0, 2, 0.00,60.00,Wednesday
347,4585310.367297905
2,18, 1,18, 0, 3, 0.00,60.00,Wednesday
347,4607829.63841546
2,18, 1,18, 0, 4, 0.00,60.00,Wednesday
347,4646518.311942453
2,18, 1,18, 0, 5, 0.00,60.00,Wednesday
347,4675863.045534592
2,18, 1,18, 0, 6, 0.00,60.00,Wednesday
347,4427599.335542571
2,18, 1,18, 0, 7, 0.00,60.00,Wednesday
347,4470752.686885653
2,18, 1,18, 0, 8, 0.00,60.00,Wednesday
347,3443581.9151368385
2,18, 1,18, 0, 9, 0.00,60.00,Wednesday
347,630751.8146598202
2,18, 1,18, 0,10, 0.00,60.00,Wednesday
347,863249.1845696567
2,18, 1,18, 0,11, 0.00,60.00,Wednesday
347,808818.9074187693
2,18, 1,18, 0,12, 0.00,60.00,Wednesday
347,771030.4593370364
2,18, 1,18, 0,13, 0.00,60.00,Wednesday
347,799452.816990907
2,18, 1,18, 0,14, 0.00,60.00,Wednesday
347,942540.7285911343
2,18, 1,18, 0,15, 0.00,60.00,Wednesday
347,1190948.0410322934
2,18, 1,18, 0,16, 0.00,60.00,Wednesday
347,1454521.0217889995
2,18, 1,18, 0,17, 0.00,60.00,Wednesday
347,1620276.5897115919
2,18, 1,18, 0,18, 0.00,60.00,Wednesday
347,3674235.177769066
2,18, 1,18, 0,19, 0.00,60.00,Wednesday
347,4570259.681472325
2,18, 1,18, 0,20, 0.00,60.00,Wednesday
347,4547980.865314278
2,18, 1,18, 0,21, 0.00,60.00,Wednesday
347,5177884.494152856
2,18, 1,18, 0,22, 0.00,60.00,Wednesday
347,5236082.518990149
2,18, 1,18, 0,23, 0.00,60.00,Wednesday
347,5845183.737873025
2,18, 1,18, 0,24, 0.00,60.00,Wednesday
347,6151381.625545318
2,19, 1,19, 0, 1, 0.00,60.00,Thursday
347,6214589.991905022
2,19, 1,19, 0, 2, 0.00,60.00,Thursday
347,6294883.033691115
2,19, 1,19, 0, 3, 0.00,60.00,Thursday
347,6362853.705278677
2,19, 1,19, 0, 4, 0.00,60.00,Thursday
347,6426523.763243272
2,19, 1,19, 0, 5, 0.00,60.00,Thursday
347,6493771.001731921
2,19, 1,19, 0, 6, 0.00,60.00,Thursday
347,6326611.084701176
2,19, 1,19, 0, 7, 0.00,60.00,Thursday
347,6454256.708924439
2,19, 1,19, 0, 8, 0.00,60.00,Thursday
347,5519923.742983155
2,19, 1,19, 0, 9, 0.00,60.00,Thursday
347,2619595.2285070877
2,19, 1,19, 0,10, 0.00,60.00,Thursday
347,2114649.243900538
2,19, 1,19, 0,11, 0.00,60.00,Thursday
347,1619598.5215370323
2,19, 1,19, 0,12, 0.00,60.00,Thursday
347,1338047.3793298107
2,19, 1,19, 0,13, 0.00,60.00,Thursday
347,1027156.878688646
2,19, 1,19, 0,14, 0.00,60.00,Thursday
347,694038.1752109424
2,19, 1,19, 0,15, 0.00,60.00,Thursday
347,1354406.7426939554
2,19, 1,19, 0,16, 0.00,60.00,Thursday
347,2502592.041165623
2,19, 1,19, 0,17, 0.00,60.00,Thursday
347,2982611.0776595256
2,19, 1,19, 0,18, 0.00,60.00,Thursday
347,5103006.635361518
2,19, 1,19, 0,19, 0.00,60.00,Thursday
347,5961429.734901769
2,19, 1,19, 0,20, 0.00,60.00,Thursday
347,5890258.465542327
2,19, 1,19, 0,21, 0.00,60.00,Thursday
347,6460864.495761875
2,19, 1,19, 0,22, 0.00,60.00,Thursday
347,6479716.880227034
2,19, 1,19, 0,23, 0.00,60.00,Thursday
347,7071546.093478241
2,19, 1,19, 0,24, 0.00,60.00,Thursday
347,7361960.855822246
2,20, 1,20, 0, 1, 0.00,60.00,Friday
347,7422865.57669213
2,20, 1,20, 0, 2, 0.00,60.00,Friday
347,7509437.359257064
2,20, 1,20, 0, 3, 0.00,60.00,Friday
347,7586928.376616467
2,20, 1,20, 0, 4, 0.00,60.00,Friday
347,7608819.340698206
2,20, 1,20, 0, 5, 0.00,60.00,Friday
347,7640549.025633687
2,20, 1,20, 0, 6, 0.00,60.00,Friday
347,7438188.483524722
2,20, 1,20, 0, 7, 0.00,60.00,Friday
347,7544254.8870941069
2,20, 1,20, 0, 8, 0.00,60.00,Friday
347,6534088.296226554
2,20, 1,20, 0, 9, 0.00,60.00,Friday
347,3548613.580418146
2,20, 1,20, 0,10, 0.00,60.00,Friday
347,3283588.717524125
2,20, 1,20, 0,11, 0.00,60.00,Friday
347,2389544.4197784138
2,20, 1,20, 0,12, 0.00,60.00,Friday
347,1744653.069377931
2,20, 1,20, 0,13, 0.00,60.00,Friday
347,1287347.3902810973
2,20, 1,20, 0,14, 0.00,60.00,Friday
347,851427.7027219465
2,20, 1,20, 0,15, 0.00,60.00,Friday
347,1200647.204414585
2,20, 1,20, 0,16, 0.00,60.00,Friday
347,2605671.355051382
2,20, 1,20, 0,17, 0.00,60.00,Friday
347,3220188.955266935
2,20, 1,20, 0,18, 0.00,60.00,Friday
347,5267423.832654468
2,20, 1,20, 0,19, 0.00,60.00,Friday
347,5996449.099441515
2,20, 1,20, 0,20, 0.00,60.00,Friday
347,5740023.172135703
2,20, 1,20, 0,21, 0.00,60.00,Friday
347,6062204.9988151029
2,20, 1,20, 0,22, 0.00,60.00,Friday
347,5814027.794420262
2,20, 1,20, 0,23, 0.00,60.00,Friday
347,6201017.984072069
2,20, 1,20, 0,24, 0.00,60.00,Friday
347,6338704.463554424
2,21, 1,21, 0, 1, 0.00,60.00,Saturday
347,6252717.432940449
2,21, 1,21, 0, 2, 0.00,60.00,Saturday
347,6217143.014216598
2,21, 1,21, 0, 3, 0.00,60.00,Saturday
347,6206244.929319698
2,21, 1,21, 0, 4, 0.00,60.00,Saturday
347,6206540.23655012
2,21, 1,21, 0, 5, 0.00,60.00,Saturday
347,6212577.982218634
2,21, 1,21, 0, 6, 0.00,60.00,Saturday
347,6234719.142823114
2,21, 1,21, 0, 7, 0.00,60.00,Saturday
347,6007076.996096832
2,21, 1,21, 0, 8, 0.00,60.00,Saturday
347,6140294.512093849
2,21, 1,21, 0, 9, 0.00,60.00,Saturday
347,5309882.069242864
2,21, 1,21, 0,10, 0.00,60.00,Saturday
347,5242805.769574858
2,21, 1,21, 0,11, 0.00,60.00,Saturday
347,4626625.490369088
2,21, 1,21, 0,12, 0.00,60.00,Saturday
347,4190564.14253463
2,21, 1,21, 0,13, 0.00,60.00,Saturday
347,4683356.441267576
2,21, 1,21, 0,14, 0.00,60.00,Saturday
347,4198367.9609867469
2,21, 1,21, 0,15, 0.00,60.00,Saturday
347,4504358.514013949
2,21, 1,21, 0,16, 0.00,60.00,Saturday
347,5813309.931219053
2,21, 1,21, 0,17, 0.00,60.00,Saturday
347,6591534.410713127
2,21, 1,21, 0,18, 0.00,60.00,Saturday
347,7398235.609526126