Program Version,EnergyPlus, Version 8.9.0-40101eaafd, YMD=2019.01.10 17:48
1,5,Environment Title[],Latitude[deg],Longitude[deg],Time Zone[],Elevation[m]
2,8,Day of Simulation[],Month[],Day of Month[],DST Indicator[1=yes 0=no],Hour[],StartMinute[],EndMinute[],DayType
3,5,Cumulative Day of Simulation[],Month[],Day of Month[],DST Indicator[1=yes 0=no],DayType  ! When Daily Report Variables Requested
4,2,Cumulative Days of Simulation[],Month[]  ! When Monthly Report Variables Requested
5,1,Cumulative Days of Simulation[] ! When Run Period Report Variables Requested
6,1,Calendar Year of Simulation[] ! When Annual Report Variables Requested
7,1,Environment,Site Outdoor Air Drybulb Temperature [C] !Hourly
314,1,ZONE ONE,Zone Air Temperature [C] !Hourly
315,1,ERV_1_HX,Heat Exchanger Total Heating Rate [W] !Hourly
379,1,ERV_1_FANSUPPLY,Fan Electric Power [W] !Hourly
393,1,ERV_1_FANSUPPLY,Fan Air Mass Flow Rate [kg/s] !Hourly
394,1,ERV_1_FANEXHAUST,Fan Electric Power [W] !Hourly
396,1,ERV_1_FANEXHAUST,Fan Air Mass Flow Rate [kg/s] !Hourly
397,1,RADIATOR,Baseboard Total Heating Rate [W] !Hourly
448,1,RADIATOR,Baseboard Hot Water Mass Flow Rate [kg/s] !Hourly
449,1,RADIATOR,Baseboard Water Inlet Temperature [C] !Hourly
450,1,RADIATOR,Baseboard Water Outlet Temperature [C] !Hourly
587,1,DISTRICT HEATING 1,District Heating Rate [W] !Hourly
588,1,DISTRICT HEATING 1,District Heating Inlet Temperature [C] !Hourly
589,1,DISTRICT HEATING 1,District Heating Outlet Temperature [C] !Hourly
590,1,DISTRICT HEATING 1,District Heating Mass Flow Rate [kg/s] !Hourly
120,1,DistrictHeating:Facility [J] !Hourly
End of Data Dictionary
1,ANNUAL SIM 1,  59.65,  17.95,   1.00,  61.00
2,1, 1, 1, 0, 1, 0.00,60.00,Sunday
7,4.0
314,18.2247776016904
315,0.0
379,0.0
393,0.0
394,0.0
396,0.0
397,0.0
448,0.0
449,55.0
450,55.0
587,0.0
588,45.53841546632255
589,45.53841546632255
590,0.0
120,43200.0
2,1, 1, 1, 0, 2, 0.00,60.00,Sunday
7,5.3
314,18.137807750435927
315,0.0
379,0.0
393,0.0
394,0.0
396,0.0
397,0.0
448,0.0
449,55.0
450,55.0
587,0.0
588,45.53841546632255
589,45.53841546632255
590,0.0
120,43200.0
2,1, 1, 1, 0, 3, 0.00,60.00,Sunday
7,6.2
314,18.125711122241019
315,0.0
379,0.0
393,0.0
394,0.0
396,0.0
397,0.0
448,0.0
449,55.0
450,55.0
587,0.0
588,45.53841546632255
589,45.53841546632255
590,0.0
120,43200.0
2,1, 1, 1, 0, 4, 0.00,60.00,Sunday
7,6.8
314,18.1031197750663
315,0.0
379,0.0
393,0.0
394,0.0
396,0.0
397,0.0
448,0.0
449,55.0
450,55.0
587,0.0
588,45.53841546632255
589,45.53841546632255
590,0.0
120,43200.0
2,1, 1, 1, 0, 5, 0.00,60.00,Sunday
7,7.2
314,18.065179819743287
315,0.0
379,0.0
393,0.0
394,0.0
396,0.0
397,0.0
448,0.0
449,55.0
450,55.0
587,0.0
588,45.53841546632255
589,45.53841546632255
590,0.0
120,43200.0
2,1, 1, 1, 0, 6, 0.00,60.00,Sunday
7,7.5
314,21.852594364562017
315,0.0
379,0.0
393,0.0
394,0.0
396,0.0
397,837.2086762554529
448,0.03168203595982143
449,55.00000000000001
450,47.257873003808999
587,1241.2930101843697
588,45.637637357714
589,53.66514872918971
590,0.03168203595982143
120,4511854.83666373
2,1, 1, 1, 0, 7, 0.00,60.00,Sunday
7,7.5
314,22.105921386691056
315,0.0
379,0.0
393,0.0
394,0.0
396,0.0
397,783.7906031853846
448,0.0323404509375
449,55.0
450,45.920868525379848
587,1250.0039671899187
588,45.7535850469222
589,55.0
590,0.0323404509375
120,4564814.281883707
2,1, 1, 1, 0, 8, 0.00,60.00,Sunday
7,6.7
314,21.72471320456492
315,0.0
379,0.0
393,0.0
394,0.0
396,0.0
397,722.0108907090582
448,0.029996940000000004
449,55.0
450,45.740398657182279
587,1153.528670210913
588,45.8006208066017
589,55.0
590,0.029996940000000004
120,4332703.212759287
2,1, 1, 1, 0, 9, 0.00,60.00,Sunday
7,6.0
314,21.502518025283224
315,0.0
379,0.0
393,0.0
394,0.0
396,0.0
397,739.9737313711562
448,0.029996940000000004
449,55.0
450,45.666590675354047
587,1155.2265588172766
588,45.78707419131024
589,55.0
590,0.029996940000000004
120,4425215.611742196
2,1, 1, 1, 0,10, 0.00,60.00,Sunday
7,5.2
314,19.48893879096846
315,0.0
379,0.0
393,0.0
394,0.0
396,0.0
397,0.0
448,0.0
449,54.99999999999999
450,54.99999999999999
587,0.0
588,45.777727888813299
589,45.777727888813299
590,0.0
120,252000.0
2,1, 1, 1, 0,11, 0.00,60.00,Sunday
7,5.2
314,19.02240312889755
315,0.0
379,0.0
393,0.0
394,0.0
396,0.0
397,382.2499073076855
448,0.014998470000000002
449,55.0
450,49.952893862844977
587,582.5308071493253
588,45.72544887347628
589,50.37114650402579
590,0.014998470000000002
120,2327510.905737571
2,1, 1, 1, 0,12, 0.00,60.00,Sunday
7,5.2
314,19.590461313964977
315,0.0
379,0.0
393,0.0
394,0.0
396,0.0
397,455.07563088387306
448,0.017998164000000005
449,55.0
450,49.034659068933347
587,708.008796288638
588,45.583294833155068
589,51.229714758946169
590,0.017998164000000005
120,2800831.666639097
2,1, 1, 1, 0,13, 0.00,60.00,Sunday
7,5.2
314,20.833024603311896
315,0.0
379,0.0
393,0.0
394,0.0
396,0.0
397,781.9423405272317
448,0.029996940000000004
449,55.0
450,45.416586560210379
587,1188.7537111927147
588,45.519573986234998
589,55.0
590,0.029996940000000004
120,4581913.360293773
2,1, 1, 1, 0,14, 0.00,60.00,Sunday
7,4.6
314,21.101621144445809
315,0.0
379,0.0
393,0.0
394,0.0
396,0.0
397,926.9554750787939
448,0.03983968593750001
449,55.0
450,46.15981546252432
587,1553.2588662173998
588,45.6730925573287
589,55.0
590,0.03983968593750001
120,5858131.918382639
2,1, 1, 1, 0,15, 0.00,60.00,Sunday
7,4.1
314,20.317534532849533
315,0.0
379,0.0
393,0.0
394,0.0
396,0.0
397,713.959218105852
448,0.029996940000000004
449,55.0
450,45.52626063341928
587,1157.4311760752753
588,45.769484596313308
589,55.0
590,0.029996940000000004
120,4425952.2338709919
2,1, 1, 1, 0,16, 0.00,60.00,Sunday
7,3.5
314,20.064655438984855
315,0.0
379,0.0
393,0.0
394,0.0
396,0.0
397,746.1189997311964
448,0.029996940000000004
449,55.0
450,45.376116970598079
587,1168.1228586400466
588,45.684180405752488
589,55.0
590,0.029996940000000004
120,4428442.291104168
2,1, 1, 1, 0,17, 0.00,60.00,Sunday
7,3.2
314,18.864130731460489
315,0.0
379,0.0
393,0.0
394,0.0
396,0.0
397,0.0
448,0.0
449,55.0
450,55.0
587,0.0
588,45.64309074895257
589,45.64309074895257
590,0.0
120,230400.0
2,1, 1, 1, 0,18, 0.00,60.00,Sunday
7,2.9
314,18.78814260553069
315,0.0
379,0.0
393,0.0
394,0.0
396,0.0
397,0.0
448,0.0
449,55.0
450,55.0
587,0.0
588,45.64309074895257
589,45.64309074895257
590,0.0
120,324000.0
2,1, 1, 1, 0,19, 0.00,60.00,Sunday
7,2.6
314,19.5787647173989
315,0.0
379,0.0
393,0.0
394,0.0
396,0.0
397,157.08723536009939
448,0.005999388000000001
449,55.0
450,52.99976451486813
587,235.17259253054704
588,45.61634219691989
589,47.49185717696389
590,0.005999388000000001
120,1149021.3331099693
2,1, 1, 1, 0,20, 0.00,60.00,Sunday
7,2.5
314,20.540175769692099
315,0.0
379,0.0
393,0.0
394,0.0
396,0.0
397,392.5677063622881
448,0.014998470000000002
449,55.0
450,50.14869134926181
587,590.5907211352936
588,45.57960977216963
589,50.2896143758232
590,0.014998470000000002
120,2378126.5960870569
2,1, 1, 1, 0,21, 0.00,60.00,Sunday
7,2.4
314,19.38816662839654
315,0.0
379,0.0
393,0.0
394,0.0
396,0.0
397,0.0
448,0.0
449,55.0
450,55.0
587,0.0
588,45.5637643759291
589,45.5637643759291
590,0.0
120,216000.0
2,1, 1, 1, 0,22, 0.00,60.00,Sunday
7,2.3
314,19.112968217388706
315,0.0
379,0.0
393,0.0
394,0.0
396,0.0
397,0.0
448,0.0
449,55.0
450,55.0
587,0.0
588,45.5637643759291
589,45.5637643759291
590,0.0
120,244800.0
2,1, 1, 1, 0,23, 0.00,60.00,Sunday
7,2.3
314,18.701027825559579
315,0.0
379,0.0
393,0.0
394,0.0
396,0.0
397,0.0
448,0.0
449,55.0
450,55.0
587,0.0
588,45.5637643759291
589,45.5637643759291
590,0.0
120,187200.0
2,1, 1, 1, 0,24, 0.00,60.00,Sunday
7,2.2
314,18.4435590108256
315,0.0
379,0.0
393,0.0
394,0.0
396,0.0
397,0.0
448,0.0
449,55.0
450,55.0
587,0.0
588,45.5637643759291
589,45.5637643759291
590,0.0
120,86400.0
2,2, 1, 2, 0, 1, 0.00,60.00,Monday
7,2.2
314,17.946167829737285
315,0.0
379,0.0
393,0.0
394,0.0
396,0.0
397,0.0
448,0.0
449,55.0
450,55.0
587,0.0
588,45.5637643759291
589,45.5637643759291
590,0.0
120,43200.0
2,2, 1, 2, 0, 2, 0.00,60.00,Monday
7,2.2
314,17.781608013101747
315,0.0
379,0.0
393,0.0
394,0.0
396,0.0
397,0.0
448,0.0
449,55.0
450,55.0
587,0.0
588,45.5637643759291
589,45.5637643759291
590,0.0
120,43200.0
2,2, 1, 2, 0, 3, 0.00,60.00,Monday
7,2.1
314,17.68652932941692
315,0.0
379,0.0
393,0.0
394,0.0
396,0.0
397,0.0
448,0.0
449,55.0
450,55.0
587,0.0
588,45.5637643759291
589,45.5637643759291
590,0.0
120,43200.0
2,2, 1, 2, 0, 4, 0.00,60.00,Monday
7,2.1
314,17.62088457153654
315,0.0
379,0.0
393,0.0
394,0.0
396,0.0
397,0.0
448,0.0
449,55.0
450,55.0
587,0.0
588,45.5637643759291
589,45.5637643759291
590,0.0
120,43200.0
2,2, 1, 2, 0, 5, 0.00,60.00,Monday
7,2.1
314,17.54293432060511
315,0.0
379,0.0
393,0.0
394,0.0
396,0.0
397,0.0
448,0.0
449,55.0
450,55.0
587,0.0
588,45.5637643759291
589,45.5637643759291
590,0.0
120,43200.0
2,2, 1, 2, 0, 6, 0.00,60.00,Monday
7,2.0
314,21.50342826804104
315,0.0
379,0.0
393,0.0
394,0.0
396,0.0
397,983.3666914208725
448,0.03655319083705357
449,55.00000000000001
450,45.89956759970376
587,1428.492555696234
588,45.66035903565039
589,55.0
590,0.03655319083705357
120,5185773.200506444
2,2, 1, 2, 0, 7, 0.00,60.00,Monday
7,2.0
314,21.867213376577653
315,0.0
379,0.0
393,0.0
394,0.0
396,0.0
397,1052.3910044587728
448,0.04840652036458332
449,55.0
450,46.593001640028038
587,1832.750860511714
588,45.9451761746459
589,55.0
590,0.04840652036458332
120,6799503.09784217
2,2, 1, 2, 0, 8, 0.00,60.00,Monday
7,2.0
314,22.11124407248828
315,0.0
379,0.0
393,0.0
394,0.0
396,0.0
397,973.0702730661852
448,0.04273001609375
449,55.0
450,46.399030419461769
587,1571.5089378553353
588,46.202028714425548
589,55.0
590,0.04273001609375
120,6010232.176279207
2,2, 1, 2, 0, 9, 0.00,60.00,Monday
7,1.9
314,19.960637994347719
315,0.0
379,0.0
393,0.0
394,0.0
396,0.0
397,762.644401530476
448,0.03916267166666666
449,54.99999999999999
450,47.597123854995157
587,1431.053975360759
588,46.258917451104178
589,53.543925469171508
590,0.03916267166666666
120,5454194.311298733
2,2, 1, 2, 0,10, 0.00,60.00,Monday
7,1.9
314,18.275604676308306
315,0.0
379,0.0
393,0.0
394,0.0
396,0.0
397,346.4124669167577
448,0.014998470000000002
449,55.0
450,49.88847113917555
587,557.2039095211095
588,46.17163044630833
589,50.61525949291176
590,0.014998470000000002
120,2236334.074275994
2,2, 1, 2, 0,11, 0.00,60.00,Monday
7,1.9
314,18.899992183889294
315,0.0
379,0.0
393,0.0
394,0.0
396,0.0
397,594.6148288649403
448,0.022497705000000004
449,55.0
450,47.391408735279259
587,859.1277205107608
588,45.87461083934191
589,52.72612469550684
590,0.022497705000000004
120,3287259.793838739
2,2, 1, 2, 0,12, 0.00,60.00,Monday
7,1.9
314,20.198075344830558
315,0.0
379,0.0
393,0.0
394,0.0
396,0.0
397,785.0138044115802
448,0.029996940000000004
449,55.0
450,45.29456228930235
587,1169.5096912821841
588,45.67311539198663
589,55.0
590,0.029996940000000004
120,4447834.888615863
2,2, 1, 2, 0,13, 0.00,60.00,Monday
7,1.9
314,20.20786929059879
315,0.0
379,0.0
393,0.0
394,0.0
396,0.0
397,751.1012871728858
448,0.029996940000000004
449,55.0
450,45.40809980155112
587,1177.6272076151758
588,45.60834882421105
589,55.0
590,0.029996940000000004
120,4534657.947414633
2,2, 1, 2, 0,14, 0.00,60.00,Monday
7,1.6
314,20.081196480285425
315,0.0
379,0.0
393,0.0
394,0.0
396,0.0
397,832.1642940163849
448,0.034059025625
449,55.0
450,45.618579318253519
587,1337.8418036487662
588,45.60311896392644
589,55.00000000000001
590,0.034059025625
120,5068230.493135558
2,2, 1, 2, 0,15, 0.00,60.00,Monday
7,1.3
314,20.077629300000817
315,0.0
379,0.0
393,0.0
394,0.0
396,0.0
397,859.5654509855307
448,0.035465132187500008
449,55.0
450,45.665997678490359
587,1387.6949797825462
588,45.639417704740299
589,55.0
590,0.035465132187500008
120,5240501.927217166
2,2, 1, 2, 0,16, 0.00,60.00,Monday
7,1.0
314,20.082068700994247
315,0.0
379,0.0
393,0.0
394,0.0
396,0.0
397,883.0850082083591
448,0.03671500468750001
449,55.0
450,45.73229520231531
587,1429.7086964871244
588,45.684343442467739
589,55.0
590,0.03671500468750001
120,5355751.307353647
2,2, 1, 2, 0,17, 0.00,60.00,Monday
7,0.9
314,20.078655256986367
315,0.0
379,0.0
393,0.0
394,0.0
396,0.0
397,877.4978025777215
448,0.03648065359375001
449,55.0
450,45.724014006986347
587,1414.6883096582899
588,45.723015123559779
589,55.0
590,0.03648065359375001
120,5323277.914769843
2,2, 1, 2, 0,18, 0.00,60.00,Monday
7,0.7
314,20.065957086847545
315,0.0
379,0.0
393,0.0
394,0.0
396,0.0
397,759.2902958903743
448,0.030699993281250005
449,55.0
450,45.44531958385788
587,1193.5328538866456
588,45.69952177308414
589,55.0
590,0.030699993281250005
120,4656718.273991925
2,2, 1, 2, 0,19, 0.00,60.00,Monday
7,0.6
314,20.6357813050291
315,0.0
379,0.0
393,0.0
394,0.0
396,0.0
397,453.4417945744592
448,0.017998164000000005
449,55.0
450,49.25432776680704
587,703.5754032918225
588,45.64801423621877
589,51.25906169450982
590,0.017998164000000005
120,2885671.4518505607
2,2, 1, 2, 0,20, 0.00,60.00,Monday
7,0.6
314,20.589784146965394
315,0.0
379,0.0
393,0.0
394,0.0
396,0.0
397,364.4056947218719
448,0.014998470000000002
449,55.0
450,50.236332903517077
587,587.6934750121237
588,45.624265895109228
589,50.31115437744078
590,0.014998470000000002
120,2403696.5100436455
2,2, 1, 2, 0,21, 0.00,60.00,Monday
7,0.6
314,19.21644612020197
315,0.0
379,0.0
393,0.0
394,0.0
396,0.0
397,0.0
448,0.0
449,55.0
450,55.0
587,0.0
588,45.61657939075184
589,45.61657939075184
590,0.0
120,259200.0
2,2, 1, 2, 0,22, 0.00,60.00,Monday
7,0.6
314,19.02831758043877
315,0.0
379,0.0
393,0.0
394,0.0
396,0.0
397,0.0
448,0.0
449,55.0
450,55.0
587,0.0
588,45.61657939075184
589,45.61657939075184
590,0.0
120,324000.0
2,2, 1, 2, 0,23, 0.00,60.00,Monday
7,0.8
314,18.631868790812484
315,0.0
379,0.0
393,0.0
394,0.0
396,0.0
397,0.0
448,0.0
449,55.0
450,55.0
587,0.0
588,45.61657939075184
589,45.61657939075184
590,0.0
120,216000.0
2,2, 1, 2, 0,24, 0.00,60.00,Monday
7,0.9
314,18.34189021511324
315,0.0
379,0.0
393,0.0
394,0.0
396,0.0
397,0.0
448,0.0
449,55.0
450,55.0
587,0.0
588,45.61657939075184
589,45.61657939075184
590,0.0
120,57600.0
2,3, 1, 3, 0, 1, 0.00,60.00,Tuesday
7,1.1
314,17.89177689675901
315,0.0
379,0.0
393,0.0
394,0.0
396,0.0
397,0.0
448,0.0
449,55.0
450,55.0
587,0.0
588,45.61657939075184
589,45.61657939075184
590,0.0
120,43200.0
2,3, 1, 3, 0, 2, 0.00,60.00,Tuesday
7,0.9
314,17.747845498648375
315,0.0
379,0.0
393,0.0
394,0.0
396,0.0
397,0.0
448,0.0
449,55.0
450,55.0
587,0.0
588,45.61657939075184
589,45.61657939075184
590,0.0
120,43200.0
2,3, 1, 3, 0, 3, 0.00,60.00,Tuesday
7,0.6
314,17.654100076305025
315,0.0
379,0.0
393,0.0
394,0.0
396,0.0
397,0.0
448,0.0
449,55.0
450,55.0
587,0.0
588,45.61657939075184
589,45.61657939075184
590,0.0
120,43200.0
2,3, 1, 3, 0, 4, 0.00,60.00,Tuesday
7,0.4
314,17.53811073700677
315,0.0
379,0.0
393,0.0
394,0.0
396,0.0
397,0.0
448,0.0
449,55.0
450,55.0
587,0.0
588,45.61657939075184
589,45.61657939075184
590,0.0
120,43200.0
2,3, 1, 3, 0, 5, 0.00,60.00,Tuesday
7,0.6
314,17.461673118071034
315,0.0
379,0.0
393,0.0
394,0.0
396,0.0
397,0.0
448,0.0
449,55.0
450,55.0
587,0.0
588,45.61657939075184
589,45.61657939075184
590,0.0
120,43200.0
2,3, 1, 3, 0, 6, 0.00,60.00,Tuesday
7,0.9
314,21.47505314971149
315,0.0
379,0.0
393,0.0
394,0.0
396,0.0
397,1012.0498226556506
448,0.03764124948660714
449,55.00000000000001
450,45.944153731015948
587,1463.4033235240402
588,45.70799398748338
589,55.0
590,0.03764124948660714
120,5311451.964686546
2,3, 1, 3, 0, 7, 0.00,60.00,Tuesday
7,1.1
314,21.857266949947147
315,0.0
379,0.0
393,0.0
394,0.0
396,0.0
397,1060.9461690277249
448,0.04905749562499999
449,55.0
450,46.620842545231997
587,1847.917365562882
588,45.990953949336198
589,55.0
590,0.04905749562499999
120,6854102.516026376
2,3, 1, 3, 0, 8, 0.00,60.00,Tuesday
7,0.9
314,22.114201361586898
315,0.0
379,0.0
393,0.0
394,0.0
396,0.0
397,990.3374786168451
448,0.0437455375
449,55.0
450,46.45080172357953
587,1600.0803155685448
588,46.250046019058469
589,55.00000000000001
590,0.0437455375
120,6113089.136046762
2,3, 1, 3, 0, 9, 0.00,60.00,Tuesday
7,0.8
314,19.959113746237479
315,0.0
379,0.0
393,0.0
394,0.0
396,0.0
397,810.4194627594968
448,0.04179261171875
449,54.99999999999999
450,47.46219511004834
587,1518.2823936622012
588,46.30987906675992
589,53.75911345956935
590,0.04179261171875
120,5768216.617183924
2,3, 1, 3, 0,10, 0.00,60.00,Tuesday
7,0.6
314,18.45747470915232
315,0.0
379,0.0
393,0.0
394,0.0
396,0.0
397,463.6438098779465
448,0.019997960000000003
449,55.0
450,48.19925129995396
587,740.8605971450113
588,46.19015046176307
589,52.09841097370248
590,0.019997960000000003
120,2897498.1497220408
2,3, 1, 3, 0,11, 0.00,60.00,Tuesday
7,1.1
314,19.77417738945322
315,0.0
379,0.0
393,0.0
394,0.0
396,0.0
397,804.2829748995773
448,0.029996940000000004
449,55.0
450,45.100742597260929
587,1148.178306023853
588,45.84330840766361
589,55.0
590,0.029996940000000004
120,4327841.90168587
2,3, 1, 3, 0,12, 0.00,60.00,Tuesday
7,1.6
314,20.029488589636306
315,0.0
379,0.0
393,0.0
394,0.0
396,0.0
397,803.211402624182
448,0.03226233390625
449,55.0
450,45.39466910012237
587,1253.594394598648
588,45.70292286065491
589,55.0
590,0.03226233390625
120,4750539.820555133
2,3, 1, 3, 0,13, 0.00,60.00,Tuesday
7,2.1
314,20.071311996601513
315,0.0
379,0.0
393,0.0
394,0.0
396,0.0
397,761.9083751940835
448,0.030387525156250006
449,55.0
450,45.36649955748271
587,1191.812045005023
588,45.617397273539399
589,55.0
590,0.030387525156250006
120,4585723.362018083
2,3, 1, 3, 0,14, 0.00,60.00,Tuesday
7,1.7
314,20.077628099544645
315,0.0
379,0.0
393,0.0
394,0.0
396,0.0
397,812.129077050385
448,0.032809153125000007
449,55.0
450,45.48334204770173
587,1292.0281672355197
588,45.57918133388397
589,55.0
590,0.032809153125000007
120,4903301.402047871
2,3, 1, 3, 0,15, 0.00,60.00,Tuesday
7,1.4
314,20.076373209195919
315,0.0
379,0.0
393,0.0
394,0.0
396,0.0
397,837.0894112961681
448,0.03413714265625
449,55.0
450,45.56031785001063
587,1343.7955831144832
588,45.58288989102203
589,55.0
590,0.03413714265625
120,5082464.09921214
2,3, 1, 3, 0,16, 0.00,60.00,Tuesday
7,1.0
314,20.078999608670427
315,0.0
379,0.0
393,0.0
394,0.0
396,0.0
397,861.8531454389029
448,0.035465132187500008
449,55.0
450,45.63580679406145
587,1391.8387817314215
588,45.611453468172609
589,55.0
590,0.035465132187500008
120,5219419.614233118
2,3, 1, 3, 0,17, 0.00,60.00,Tuesday
7,1.0
314,20.0735300818047
315,0.0
379,0.0
393,0.0
394,0.0
396,0.0
397,847.534638145287
448,0.0348401959375
449,55.0
450,45.613443984735699
587,1363.4162463079747
588,45.638222128622029
589,55.0
590,0.0348401959375
120,5138698.486708709
2,3, 1, 3, 0,18, 0.00,60.00,Tuesday
7,1.0
314,20.151511813828834
315,0.0
379,0.0
393,0.0
394,0.0
396,0.0
397,747.7346076196263
448,0.029996940000000004
449,55.0
450,45.38319234759028
587,1176.8652065012297
588,45.61442856125428
589,55.00000000000001
590,0.029996940000000004
120,4596714.743404428
2,3, 1, 3, 0,19, 0.00,60.00,Tuesday
7,1.0
314,20.69627155364866
315,0.0
379,0.0
393,0.0
394,0.0
396,0.0
397,379.23609265349548
448,0.014998470000000002
449,54.99999999999999
450,50.216659274961127
587,590.7281867503506
588,45.5766206283474
589,50.28772202260576
590,0.014998470000000002
120,2479421.4723012626
2,3, 1, 3, 0,20, 0.00,60.00,Tuesday
7,1.0
314,20.810740232967814
315,0.0
379,0.0
393,0.0
394,0.0
396,0.0
397,377.70729878698207
448,0.014998470000000002
449,55.0
450,50.240406573086207
587,591.1633099092599
588,45.570304317347638
589,50.284877417267718
590,0.014998470000000002
120,2416187.915673336
2,3, 1, 3, 0,21, 0.00,60.00,Tuesday
7,1.0
314,19.4136921081542
315,0.0
379,0.0
393,0.0
394,0.0
396,0.0
397,0.0
448,0.0
449,55.0
450,55.0
587,0.0
588,45.567615158787969
589,45.567615158787969
590,0.0
120,259200.0
2,3, 1, 3, 0,22, 0.00,60.00,Tuesday
7,1.0
314,19.19611348500389
315,0.0
379,0.0
393,0.0
394,0.0
396,0.0
397,0.0
448,0.0
449,55.0
450,55.0
587,0.0
588,45.56761515878796
589,45.56761515878796
590,0.0
120,324000.0
2,3, 1, 3, 0,23, 0.00,60.00,Tuesday
7,1.4
314,18.903864312046989
315,0.0
379,0.0
393,0.0
394,0.0
396,0.0
397,0.0
448,0.0
449,55.0
450,55.0
587,0.0
588,45.56761515878796
589,45.56761515878796
590,0.0
120,216000.0
2,3, 1, 3, 0,24, 0.00,60.00,Tuesday
7,1.7
314,18.605418274433334
315,0.0
379,0.0
393,0.0
394,0.0
396,0.0
397,0.0
448,0.0
449,55.0
450,55.0
587,0.0
588,45.56761515878796
589,45.56761515878796
590,0.0
120,57600.0
2,4, 1, 4, 0, 1, 0.00,60.00,Wednesday
7,2.1
314,18.070394354193256
315,0.0
379,0.0
393,0.0
394,0.0
396,0.0
397,0.0
448,0.0
449,55.0
450,55.0
587,0.0
588,45.56761515878796
589,45.56761515878796
590,0.0
120,43200.0
2,4, 1, 4, 0, 2, 0.00,60.00,Wednesday
7,1.4
314,17.87770697245835
315,0.0
379,0.0
393,0.0
394,0.0
396,0.0
397,0.0
448,0.0
449,55.0
450,55.0
587,0.0
588,45.56761515878796
589,45.56761515878796
590,0.0
120,43200.0
2,4, 1, 4, 0, 3, 0.00,60.00,Wednesday
7,0.8
314,17.795358546737629
315,0.0
379,0.0
393,0.0
394,0.0
396,0.0
397,0.0
448,0.0
449,55.0
450,55.0
587,0.0
588,45.56761515878796
589,45.56761515878796
590,0.0
120,43200.0
2,4, 1, 4, 0, 4, 0.00,60.00,Wednesday
7,0.1
314,17.689035353589138
315,0.0
379,0.0
393,0.0
394,0.0
396,0.0
397,0.0
448,0.0
449,55.0
450,55.0
587,0.0
588,45.56761515878796
589,45.56761515878796
590,0.0
120,43200.0
2,4, 1, 4, 0, 5, 0.00,60.00,Wednesday
7,-0.3
314,17.57275143208533
315,0.0
379,0.0
393,0.0
394,0.0
396,0.0
397,0.0
448,0.0
449,55.0
450,55.0
587,0.0
588,45.56761515878796
589,45.56761515878796
590,0.0
120,43200.0
2,4, 1, 4, 0, 6, 0.00,60.00,Wednesday
7,-0.7
314,21.50321618099287
315,0.0
379,0.0
393,0.0
394,0.0
396,0.0
397,991.8976835315035
448,0.03688239832589285
449,55.00000000000001
450,45.91391268967668
587,1440.4973364958273
588,45.665837733496228
589,55.0
590,0.03688239832589285
120,5228990.411384981
2,4, 1, 4, 0, 7, 0.00,60.00,Wednesday
7,-1.1
314,21.86012322763242
315,0.0
379,0.0
393,0.0
394,0.0
396,0.0
397,1065.2576435654023
448,0.04921372968749999
449,55.0
450,46.629539064295418
587,1859.8921201255823
588,45.96115578280983
589,54.999999999999989
590,0.04921372968749999
120,6897211.632452097
2,4, 1, 4, 0, 8, 0.00,60.00,Wednesday
7,-1.4
314,22.113836154637803
315,0.0
379,0.0
393,0.0
394,0.0
396,0.0
397,999.5685484261726
448,0.04429235671875
449,55.0
450,46.476213467832767
587,1621.5194543606865
588,46.24227549026606
589,54.99999999999999
590,0.04429235671875
120,6190270.035698472
2,4, 1, 4, 0, 9, 0.00,60.00,Wednesday
7,-1.8
314,19.721370622391406
315,0.0
379,0.0
393,0.0
394,0.0
396,0.0
397,817.0021234848282
448,0.04285277142857142
449,54.99999999999999
450,47.468314703303658
587,1557.2604335515698
588,46.30795407883502
589,53.759255112592089
590,0.04285277142857142
120,5908537.560785652
2,4, 1, 4, 0,10, 0.00,60.00,Wednesday
7,-2.1
314,20.009080619369287
315,0.0
379,0.0
393,0.0
394,0.0
396,0.0
397,994.7076510894747
448,0.041753553203125
449,55.0
450,45.8265685281454
587,1536.018636945489
588,46.201634033288119
589,55.0
590,0.041753553203125
120,5760067.09300376
2,4, 1, 4, 0,11, 0.00,60.00,Wednesday
7,-2.4
314,20.088304275785128
315,0.0
379,0.0
393,0.0
394,0.0
396,0.0
397,899.0728849380422
448,0.036949355781250008
449,55.0
450,45.65857577416479
587,1379.5670360392555
588,46.06823148052682
589,54.99999999999999
590,0.036949355781250008
120,5160841.32974132
2,4, 1, 4, 0,12, 0.00,60.00,Wednesday
7,-2.6
314,20.084380199772377
315,0.0
379,0.0
393,0.0
394,0.0
396,0.0
397,909.0944643870887
448,0.03773052609375001
449,55.0
450,45.71914468219046
587,1426.4619593484665
588,45.95577846707494
589,54.99999999999999
590,0.03773052609375001
120,5372863.05365448
2,4, 1, 4, 0,13, 0.00,60.00,Wednesday
7,-2.9
314,20.081421868484719
315,0.0
379,0.0
393,0.0
394,0.0
396,0.0
397,916.1119416180317
448,0.0382773453125
449,54.99999999999999
450,45.76859843948573
587,1455.6018864938542
588,45.90284158182574
589,55.0
590,0.0382773453125
120,5535366.791377875
2,4, 1, 4, 0,14, 0.00,60.00,Wednesday
7,-3.5
314,20.085123503818097
315,0.0
379,0.0
393,0.0
394,0.0
396,0.0
397,990.1704174397781
448,0.042495665
449,55.0
450,45.9983253451162
587,1611.8672529668306
588,45.92620183075619
589,55.0
590,0.042495665
120,6054722.11068059
2,4, 1, 4, 0,15, 0.00,60.00,Wednesday
7,-4.2
314,20.088023595867644
315,0.0
379,0.0
393,0.0
394,0.0
396,0.0
397,1038.2196267510872
448,0.045307878125
449,55.0
450,46.15114129804144
587,1701.2915799452567
588,46.01728524578346
589,55.00000000000001
590,0.045307878125
120,6369449.687802924
2,4, 1, 4, 0,16, 0.00,60.00,Wednesday
7,-4.8
314,20.093100990028263
315,0.0
379,0.0
393,0.0
394,0.0
396,0.0
397,1084.517681557113
448,0.04812009125
449,55.0
450,46.29785257428203
587,1782.653713164466
588,46.13781888694351
589,54.99999999999999
590,0.04812009125
120,6626353.367392077
2,4, 1, 4, 0,17, 0.00,60.00,Wednesday
7,-5.1
314,20.091630120174857
315,0.0
379,0.0
393,0.0
394,0.0
396,0.0
397,1088.7495316710203
448,0.048432559374999999
449,55.0
450,46.31781991409462
587,1773.20737214322
588,46.241695793870487
589,55.00000000000001
590,0.048432559374999999
120,6613946.539715592
2,4, 1, 4, 0,18, 0.00,60.00,Wednesday
7,-5.5
314,20.08275442778942
315,0.0
379,0.0
393,0.0
394,0.0
396,0.0
397,982.7310504153247
448,0.04226131390625
449,55.0
450,46.011590996321277
587,1548.4005813282129
588,46.23527325095895
589,54.99999999999999
590,0.04226131390625
120,5934242.092781566
2,4, 1, 4, 0,19, 0.00,60.00,Wednesday
7,-5.8
314,20.419020370098566
315,0.0
379,0.0
393,0.0
394,0.0
396,0.0
397,449.01350212796106
448,0.017998164000000005
449,55.0
450,49.22800884503564
587,667.8187380212738
588,46.123603671492819
589,51.4493689020832
590,0.017998164000000005
120,2756947.4568765859
2,4, 1, 4, 0,20, 0.00,60.00,Wednesday
7,-5.9
314,20.719558297430728
315,0.0
379,0.0
393,0.0
394,0.0
396,0.0
397,555.4111622150114
448,0.022497705000000004
449,55.0
450,47.816301757593198
587,848.0688103652544
588,45.988199703978889
589,52.75148094303965
590,0.022497705000000004
120,3341047.7173149159
2,4, 1, 4, 0,21, 0.00,60.00,Wednesday
7,-6.1
314,19.280922445226243
315,0.0
379,0.0
393,0.0
394,0.0
396,0.0
397,0.0
448,0.0
449,55.0
450,55.0
587,0.0
588,45.91820563380778
589,45.91820563380778
590,0.0
120,259200.0
2,4, 1, 4, 0,22, 0.00,60.00,Wednesday
7,-6.2
314,18.88639156206537
315,0.0
379,0.0
393,0.0
394,0.0
396,0.0
397,0.0
448,0.0
449,55.0
450,55.0
587,0.0
588,45.91820563380777
589,45.91820563380777
590,0.0
120,324000.0
2,4, 1, 4, 0,23, 0.00,60.00,Wednesday
7,-6.2
314,18.441716854154316
315,0.0
379,0.0
393,0.0
394,0.0
396,0.0
397,0.0
448,0.0
449,55.0
450,55.0
587,0.0
588,45.91820563380778
589,45.91820563380778
590,0.0
120,216000.0
2,4, 1, 4, 0,24, 0.00,60.00,Wednesday
7,-6.3
314,17.990449677147205
315,0.0
379,0.0
393,0.0
394,0.0
396,0.0
397,0.0
448,0.0
449,55.0
450,55.0
587,0.0
588,45.91820563380778
589,45.91820563380778
590,0.0
120,57600.0
2,5, 1, 5, 0, 1, 0.00,60.00,Thursday
7,-6.3
314,17.511154359989086
315,0.0
379,0.0
393,0.0
394,0.0
396,0.0
397,0.0
448,0.0
449,55.0
450,55.0
587,0.0
588,45.91820563380778
589,45.91820563380778
590,0.0
120,43200.0
2,5, 1, 5, 0, 2, 0.00,60.00,Thursday
7,-6.4
314,17.357019889198946
315,0.0
379,0.0
393,0.0
394,0.0
396,0.0
397,0.0
448,0.0
449,55.0
450,55.0
587,0.0
588,45.91820563380778
589,45.91820563380778
590,0.0
120,43200.0
2,5, 1, 5, 0, 3, 0.00,60.00,Thursday
7,-6.5
314,17.24597921952889
315,0.0
379,0.0
393,0.0
394,0.0
396,0.0
397,0.0
448,0.0
449,55.0
450,55.0
587,0.0
588,45.91820563380778
589,45.91820563380778
590,0.0
120,43200.0
2,5, 1, 5, 0, 4, 0.00,60.00,Thursday
7,-6.6
314,17.122015656856939
315,0.0
379,0.0
393,0.0
394,0.0
396,0.0
397,0.0
448,0.0
449,55.0
450,55.0
587,0.0
588,45.91820563380778
589,45.91820563380778
590,0.0
120,43200.0
2,5, 1, 5, 0, 5, 0.00,60.00,Thursday
7,-6.4
314,17.0119486179104
315,0.0
379,0.0
393,0.0
394,0.0
396,0.0
397,0.0
448,0.0
449,55.0
450,55.0
587,0.0
588,45.91820563380778
589,45.91820563380778
590,0.0
120,43200.0
2,5, 1, 5, 0, 6, 0.00,60.00,Thursday
7,-6.3
314,21.263747943840664
315,0.0
379,0.0
393,0.0
394,0.0
396,0.0
397,1175.828860256374
448,0.04530186912259615
449,54.99999999999998
450,46.258939698397309
587,1706.1645358730882
588,45.99594068513201
589,54.999999999999989
590,0.04530186912259615
120,6185392.329143117
2,5, 1, 5, 0, 7, 0.00,60.00,Thursday
7,-6.1
314,21.331307393920154
315,0.0
379,0.0
393,0.0
394,0.0
396,0.0
397,1047.9397007115194
448,0.049994899999999998
449,55.0
450,46.57329234099222
587,1833.0160648537858
588,46.22920917629824
589,54.99999999999999
590,0.049994899999999998
120,6800457.833473628
2,5, 1, 5, 0, 8, 0.00,60.00,Thursday
7,-5.8
314,21.89177392658083
315,0.0
379,0.0
393,0.0
394,0.0
396,0.0
397,1083.0001387151246
448,0.048471617890625
449,55.0
450,46.5594466150084
587,1739.850876469163
588,46.41440072995228
589,55.0
590,0.048471617890625
120,6616263.155288987
2,5, 1, 5, 0, 9, 0.00,60.00,Thursday
7,-5.6
314,19.566732324881476
315,0.0
379,0.0
393,0.0
394,0.0
396,0.0
397,973.4734760756533
448,0.0499949
449,54.99999999999999
450,46.28816483012181
587,1783.3596515001677
588,46.466907132052558
589,54.99999999999999
590,0.0499949
120,6722494.745400604
2,5, 1, 5, 0,10, 0.00,60.00,Thursday
7,-5.3
314,19.50565094259583
315,0.0
379,0.0
393,0.0
394,0.0
396,0.0
397,1160.8211247630404
448,0.0499949
449,55.0
450,46.02912444354048
587,1813.6033294244028
588,46.32213587234415
589,55.0
590,0.0499949
120,6759371.98592785
2,5, 1, 5, 0,11, 0.00,60.00,Thursday
7,-4.9
314,20.086037128681853
315,0.0
379,0.0
393,0.0
394,0.0
396,0.0
397,1143.837690035452
448,0.0499949
449,55.0
450,46.25437427391243
587,1824.6867156064552
588,46.26908109652639
589,55.0
590,0.0499949
120,6763272.176183239
2,5, 1, 5, 0,12, 0.00,60.00,Thursday
7,-4.4
314,20.339340600528887
315,0.0
379,0.0
393,0.0
394,0.0
396,0.0
397,1121.6580153854313
448,0.0499949
449,55.0
450,46.39023310965147
587,1811.5941342921683
588,46.3317536073704
589,55.0
590,0.0499949
120,6759338.883451805
2,5, 1, 5, 0,13, 0.00,60.00,Thursday
7,-4.0
314,20.426085909052686
315,0.0
379,0.0
393,0.0
394,0.0
396,0.0
397,1117.2649500308144
448,0.0499949
449,55.0
450,46.42204720527017
587,1798.2818160758975
588,46.3954775820527
589,54.99999999999999
590,0.0499949
120,6769014.537873231
2,5, 1, 5, 0,14, 0.00,60.00,Thursday
7,-4.4
314,20.269736819718135
315,0.0
379,0.0
393,0.0
394,0.0
396,0.0
397,1112.527767061172
448,0.0499949
449,55.0
450,46.45651178776608
587,1787.8396727929362
588,46.44546220846288
589,54.999999999999989
590,0.0499949