Program Version,EnergyPlus, Version 8.9.0-40101eaafd, YMD=2019.01.10 17:48
1,5,Environment Title[],Latitude[deg],Longitude[deg],Time Zone[],Elevation[m]
2,8,Day of Simulation[],Month[],Day of Month[],DST Indicator[1=yes 0=no],Hour[],StartMinute[],EndMinute[],DayType
3,5,Cumulative Day of Simulation[],Month[],Day of Month[],DST Indicator[1=yes 0=no],DayType  ! When Daily Meters Requested
4,2,Cumulative Days of Simulation[],Month[]  ! When Monthly Meters Requested
5,1,Cumulative Days of Simulation[] ! When Run Period Meters Requested
6,1,Calendar Year of Simulation[] ! When Annual Meters Requested
120,1,DistrictHeating:Facility [J] !Hourly
End of Data Dictionary
1,ANNUAL SIM 1,  59.65,  17.95,   1.00,  61.00
2,1, 1, 1, 0, 1, 0.00,60.00,Sunday
120,43200.0
2,1, 1, 1, 0, 2, 0.00,60.00,Sunday
120,43200.0
2,1, 1, 1, 0, 3, 0.00,60.00,Sunday
120,43200.0
2,1, 1, 1, 0, 4, 0.00,60.00,Sunday
120,43200.0
2,1, 1, 1, 0, 5, 0.00,60.00,Sunday
120,43200.0
2,1, 1, 1, 0, 6, 0.00,60.00,Sunday
120,4511854.83666373
2,1, 1, 1, 0, 7, 0.00,60.00,Sunday
120,4564814.281883707
2,1, 1, 1, 0, 8, 0.00,60.00,Sunday
120,4332703.212759287
2,1, 1, 1, 0, 9, 0.00,60.00,Sunday
120,4425215.611742196
2,1, 1, 1, 0,10, 0.00,60.00,Sunday
120,252000.0
2,1, 1, 1, 0,11, 0.00,60.00,Sunday
120,2327510.905737571
2,1, 1, 1, 0,12, 0.00,60.00,Sunday
120,2800831.666639097
2,1, 1, 1, 0,13, 0.00,60.00,Sunday
120,4581913.360293773
2,1, 1, 1, 0,14, 0.00,60.00,Sunday
120,5858131.918382639
2,1, 1, 1, 0,15, 0.00,60.00,Sunday
120,4425952.2338709919
2,1, 1, 1, 0,16, 0.00,60.00,Sunday
120,4428442.291104168
2,1, 1, 1, 0,17, 0.00,60.00,Sunday
120,230400.0
2,1, 1, 1, 0,18, 0.00,60.00,Sunday
120,324000.0
2,1, 1, 1, 0,19, 0.00,60.00,Sunday
120,1149021.3331099693
2,1, 1, 1, 0,20, 0.00,60.00,Sunday
120,2378126.5960870569
2,1, 1, 1, 0,21, 0.00,60.00,Sunday
120,216000.0
2,1, 1, 1, 0,22, 0.00,60.00,Sunday
120,244800.0
2,1, 1, 1, 0,23, 0.00,60.00,Sunday
120,187200.0
2,1, 1, 1, 0,24, 0.00,60.00,Sunday
120,86400.0
2,2, 1, 2, 0, 1, 0.00,60.00,Monday
120,43200.0
2,2, 1, 2, 0, 2, 0.00,60.00,Monday
120,43200.0
2,2, 1, 2, 0, 3, 0.00,60.00,Monday
120,43200.0
2,2, 1, 2, 0, 4, 0.00,60.00,Monday
120,43200.0
2,2, 1, 2, 0, 5, 0.00,60.00,Monday
120,43200.0
2,2, 1, 2, 0, 6, 0.00,60.00,Monday
120,5185773.200506444
2,2, 1, 2, 0, 7, 0.00,60.00,Monday
120,6799503.09784217
2,2, 1, 2, 0, 8, 0.00,60.00,Monday
120,6010232.176279207
2,2, 1, 2, 0, 9, 0.00,60.00,Monday
120,5454194.311298733
2,2, 1, 2, 0,10, 0.00,60.00,Monday
120,2236334.074275994
2,2, 1, 2, 0,11, 0.00,60.00,Monday
120,3287259.793838739
2,2, 1, 2, 0,12, 0.00,60.00,Monday
120,4447834.888615863
2,2, 1, 2, 0,13, 0.00,60.00,Monday
120,4534657.947414633
2,2, 1, 2, 0,14, 0.00,60.00,Monday
120,5068230.493135558
2,2, 1, 2, 0,15, 0.00,60.00,Monday
120,5240501.927217166
2,2, 1, 2, 0,16, 0.00,60.00,Monday
120,5355751.307353647
2,2, 1, 2, 0,17, 0.00,60.00,Monday
120,5323277.914769843
2,2, 1, 2, 0,18, 0.00,60.00,Monday
120,4656718.273991925
2,2, 1, 2, 0,19, 0.00,60.00,Monday
120,2885671.4518505607
2,2, 1, 2, 0,20, 0.00,60.00,Monday
120,2403696.5100436455
2,2, 1, 2, 0,21, 0.00,60.00,Monday
120,259200.0
2,2, 1, 2, 0,22, 0.00,60.00,Monday
120,324000.0
2,2, 1, 2, 0,23, 0.00,60.00,Monday
120,216000.0
2,2, 1, 2, 0,24, 0.00,60.00,Monday
120,57600.0
2,3, 1, 3, 0, 1, 0.00,60.00,Tuesday
120,43200.0
2,3, 1, 3, 0, 2, 0.00,60.00,Tuesday
120,43200.0
2,3, 1, 3, 0, 3, 0.00,60.00,Tuesday
120,43200.0
2,3, 1, 3, 0, 4, 0.00,60.00,Tuesday
120,43200.0
2,3, 1, 3, 0, 5, 0.00,60.00,Tuesday
120,43200.0
2,3, 1, 3, 0, 6, 0.00,60.00,Tuesday
120,5311451.964686546
2,3, 1, 3, 0, 7, 0.00,60.00,Tuesday
120,6854102.516026376
2,3, 1, 3, 0, 8, 0.00,60.00,Tuesday
120,6113089.136046762
2,3, 1, 3, 0, 9, 0.00,60.00,Tuesday
120,5768216.617183924
2,3, 1, 3, 0,10, 0.00,60.00,Tuesday
120,2897498.1497220408
2,3, 1, 3, 0,11, 0.00,60.00,Tuesday
120,4327841.90168587
2,3, 1, 3, 0,12, 0.00,60.00,Tuesday
120,4750539.820555133
2,3, 1, 3, 0,13, 0.00,60.00,Tuesday
120,4585723.362018083
2,3, 1, 3, 0,14, 0.00,60.00,Tuesday
120,4903301.402047871
2,3, 1, 3, 0,15, 0.00,60.00,Tuesday
120,5082464.09921214
2,3, 1, 3, 0,16, 0.00,60.00,Tuesday
120,5219419.614233118
2,3, 1, 3, 0,17, 0.00,60.00,Tuesday
120,5138698.486708709
2,3, 1, 3, 0,18, 0.00,60.00,Tuesday
120,4596714.743404428
2,3, 1, 3, 0,19, 0.00,60.00,Tuesday
120,2479421.4723012626
2,3, 1, 3, 0,20, 0.00,60.00,Tuesday
120,2416187.915673336
2,3, 1, 3, 0,21, 0.00,60.00,Tuesday
120,259200.0
2,3, 1, 3, 0,22, 0.00,60.00,Tuesday
120,324000.0
2,3, 1, 3, 0,23, 0.00,60.00,Tuesday
120,216000.0
2,3, 1, 3, 0,24, 0.00,60.00,Tuesday
120,57600.0
2,4, 1, 4, 0, 1, 0.00,60.00,Wednesday
120,43200.0
2,4, 1, 4, 0, 2, 0.00,60.00,Wednesday
120,43200.0
2,4, 1, 4, 0, 3, 0.00,60.00,Wednesday
120,43200.0
2,4, 1, 4, 0, 4, 0.00,60.00,Wednesday
120,43200.0
2,4, 1, 4, 0, 5, 0.00,60.00,Wednesday
120,43200.0
2,4, 1, 4, 0, 6, 0.00,60.00,Wednesday
120,5228990.411384981
2,4, 1, 4, 0, 7, 0.00,60.00,Wednesday
120,6897211.632452097
2,4, 1, 4, 0, 8, 0.00,60.00,Wednesday
120,6190270.035698472
2,4, 1, 4, 0, 9, 0.00,60.00,Wednesday
120,5908537.560785652
2,4, 1, 4, 0,10, 0.00,60.00,Wednesday
120,5760067.09300376
2,4, 1, 4, 0,11, 0.00,60.00,Wednesday
120,5160841.32974132
2,4, 1, 4, 0,12, 0.00,60.00,Wednesday
120,5372863.05365448
2,4, 1, 4, 0,13, 0.00,60.00,Wednesday
120,5535366.791377875
2,4, 1, 4, 0,14, 0.00,60.00,Wednesday
120,6054722.11068059
2,4, 1, 4, 0,15, 0.00,60.00,Wednesday
120,6369449.687802924
2,4, 1, 4, 0,16, 0.00,60.00,Wednesday
120,6626353.367392077
2,4, 1, 4, 0,17, 0.00,60.00,Wednesday
120,6613946.539715592
2,4, 1, 4, 0,18, 0.00,60.00,Wednesday
120,5934242.092781566
2,4, 1, 4, 0,19, 0.00,60.00,Wednesday
120,2756947.4568765859
2,4, 1, 4, 0,20, 0.00,60.00,Wednesday
120,3341047.7173149159
2,4, 1, 4, 0,21, 0.00,60.00,Wednesday
120,259200.0
2,4, 1, 4, 0,22, 0.00,60.00,Wednesday
120,324000.0
2,4, 1, 4, 0,23, 0.00,60.00,Wednesday
120,216000.0
2,4, 1, 4, 0,24, 0.00,60.00,Wednesday
120,57600.0
2,5, 1, 5, 0, 1, 0.00,60.00,Thursday
120,43200.0
2,5, 1, 5, 0, 2, 0.00,60.00,Thursday
120,43200.0
2,5, 1, 5, 0, 3, 0.00,60.00,Thursday
120,43200.0
2,5, 1, 5, 0, 4, 0.00,60.00,Thursday
120,43200.0
2,5, 1, 5, 0, 5, 0.00,60.00,Thursday
120,43200.0
2,5, 1, 5, 0, 6, 0.00,60.00,Thursday
120,6185392.329143117
2,5, 1, 5, 0, 7, 0.00,60.00,Thursday
120,6800457.833473628
2,5, 1, 5, 0, 8, 0.00,60.00,Thursday
120,6616263.155288987
2,5, 1, 5, 0, 9, 0.00,60.00,Thursday
120,6722494.745400604
2,5, 1, 5, 0,10, 0.00,60.00,Thursday
120,6759371.98592785
2,5, 1, 5, 0,11, 0.00,60.00,Thursday
120,6763272.176183239
2,5, 1, 5, 0,12, 0.00,60.00,Thursday
120,6759338.883451805
2,5, 1, 5, 0,13, 0.00,60.00,Thursday
120,6769014.537873231
2,5, 1, 5, 0,14, 0.00,60.00,Thursday
120,6688222.822054571
2,5, 1, 5, 0,15, 0.00,60.00,Thursday
120,6660228.141851484
2,5, 1, 5, 0,16, 0.00,60.00,Thursday
120,6623370.154444988
2,5, 1, 5, 0,17, 0.00,60.00,Thursday
120,6653692.70386261
2,5, 1, 5, 0,18, 0.00,60.00,Thursday
120,6788915.072937728
2,5, 1, 5, 0,19, 0.00,60.00,Thursday
120,4825718.210427614
2,5, 1, 5, 0,20, 0.00,60.00,Thursday
120,4915551.298031169
2,5, 1, 5, 0,21, 0.00,60.00,Thursday
120,259200.0
2,5, 1, 5, 0,22, 0.00,60.00,Thursday
120,324000.0
2,5, 1, 5, 0,23, 0.00,60.00,Thursday
120,216000.0
2,5, 1, 5, 0,24, 0.00,60.00,Thursday
120,57600.0
2,6, 1, 6, 0, 1, 0.00,60.00,Friday
120,43200.0
2,6, 1, 6, 0, 2, 0.00,60.00,Friday
120,43200.0
2,6, 1, 6, 0, 3, 0.00,60.00,Friday
120,43200.0
2,6, 1, 6, 0, 4, 0.00,60.00,Friday
120,43200.0
2,6, 1, 6, 0, 5, 0.00,60.00,Friday
120,43200.0
2,6, 1, 6, 0, 6, 0.00,60.00,Friday
120,4792814.506954881
2,6, 1, 6, 0, 7, 0.00,60.00,Friday
120,6101738.931931534
2,6, 1, 6, 0, 8, 0.00,60.00,Friday
120,5737342.260661238
2,6, 1, 6, 0, 9, 0.00,60.00,Friday
120,6752799.9423625529
2,6, 1, 6, 0,10, 0.00,60.00,Friday
120,6661555.327560075
2,6, 1, 6, 0,11, 0.00,60.00,Friday
120,4677130.982327878
2,6, 1, 6, 0,12, 0.00,60.00,Friday
120,4275465.2560657099
2,6, 1, 6, 0,13, 0.00,60.00,Friday
120,4428026.722068133
2,6, 1, 6, 0,14, 0.00,60.00,Friday
120,4450406.521141956
2,6, 1, 6, 0,15, 0.00,60.00,Friday
120,4488381.1189083899
2,6, 1, 6, 0,16, 0.00,60.00,Friday
120,4488524.147924807
2,6, 1, 6, 0,17, 0.00,60.00,Friday
120,4540122.51954685
2,6, 1, 6, 0,18, 0.00,60.00,Friday
120,4693778.834907845
2,6, 1, 6, 0,19, 0.00,60.00,Friday
120,1802396.8898565737
2,6, 1, 6, 0,20, 0.00,60.00,Friday
120,1741189.1533313278
2,6, 1, 6, 0,21, 0.00,60.00,Friday
120,259200.0
2,6, 1, 6, 0,22, 0.00,60.00,Friday
120,324000.0
2,6, 1, 6, 0,23, 0.00,60.00,Friday
120,216000.0
2,6, 1, 6, 0,24, 0.00,60.00,Friday
120,57600.0
2,7, 1, 7, 0, 1, 0.00,60.00,Saturday
120,43200.0
2,7, 1, 7, 0, 2, 0.00,60.00,Saturday
120,43200.0
2,7, 1, 7, 0, 3, 0.00,60.00,Saturday
120,43200.0
2,7, 1, 7, 0, 4, 0.00,60.00,Saturday
120,43200.0
2,7, 1, 7, 0, 5, 0.00,60.00,Saturday
120,43200.0
2,7, 1, 7, 0, 6, 0.00,60.00,Saturday
120,5555101.291396813
2,7, 1, 7, 0, 7, 0.00,60.00,Saturday
120,6977225.803941672
2,7, 1, 7, 0, 8, 0.00,60.00,Saturday
120,6147516.8724222709
2,7, 1, 7, 0, 9, 0.00,60.00,Saturday
120,2968563.9844853647
2,7, 1, 7, 0,10, 0.00,60.00,Saturday
120,4360253.051578068
2,7, 1, 7, 0,11, 0.00,60.00,Saturday
120,6068062.154741845
2,7, 1, 7, 0,12, 0.00,60.00,Saturday
120,5511974.0590696469
2,7, 1, 7, 0,13, 0.00,60.00,Saturday
120,4598465.587519592
2,7, 1, 7, 0,14, 0.00,60.00,Saturday
120,5077290.287129808
2,7, 1, 7, 0,15, 0.00,60.00,Saturday
120,5126723.425224049
2,7, 1, 7, 0,16, 0.00,60.00,Saturday
120,5271134.500136422
2,7, 1, 7, 0,17, 0.00,60.00,Saturday
120,3406041.876920415
2,7, 1, 7, 0,18, 0.00,60.00,Saturday
120,2457029.695457342
2,7, 1, 7, 0,19, 0.00,60.00,Saturday
120,3168887.530156277
2,7, 1, 7, 0,20, 0.00,60.00,Saturday
120,2438307.5809348265
2,7, 1, 7, 0,21, 0.00,60.00,Saturday
120,223200.0
2,7, 1, 7, 0,22, 0.00,60.00,Saturday
120,223200.0
2,7, 1, 7, 0,23, 0.00,60.00,Saturday
120,201600.00000000004
2,7, 1, 7, 0,24, 0.00,60.00,Saturday
120,72000.0
2,8, 1, 8, 0, 1, 0.00,60.00,Sunday
120,43200.0
2,8, 1, 8, 0, 2, 0.00,60.00,Sunday
120,43200.0
2,8, 1, 8, 0, 3, 0.00,60.00,Sunday
120,43200.0
2,8, 1, 8, 0, 4, 0.00,60.00,Sunday
120,43200.0
2,8, 1, 8, 0, 5, 0.00,60.00,Sunday
120,43200.0
2,8, 1, 8, 0, 6, 0.00,60.00,Sunday
120,5357779.231715666
2,8, 1, 8, 0, 7, 0.00,60.00,Sunday
120,6848742.605665455
2,8, 1, 8, 0, 8, 0.00,60.00,Sunday
120,6020188.996662014
2,8, 1, 8, 0, 9, 0.00,60.00,Sunday
120,2913495.146003823
2,8, 1, 8, 0,10, 0.00,60.00,Sunday
120,252000.0
2,8, 1, 8, 0,11, 0.00,60.00,Sunday
120,4325709.99168301
2,8, 1, 8, 0,12, 0.00,60.00,Sunday
120,5424042.882185858
2,8, 1, 8, 0,13, 0.00,60.00,Sunday
120,5387064.677075618
2,8, 1, 8, 0,14, 0.00,60.00,Sunday
120,5844851.0012649069
2,8, 1, 8, 0,15, 0.00,60.00,Sunday
120,5955440.697713026
2,8, 1, 8, 0,16, 0.00,60.00,Sunday
120,6153630.171871188
2,8, 1, 8, 0,17, 0.00,60.00,Sunday
120,4337122.777560348
2,8, 1, 8, 0,18, 0.00,60.00,Sunday
120,4456372.920238318
2,8, 1, 8, 0,19, 0.00,60.00,Sunday
120,4449435.335703706
2,8, 1, 8, 0,20, 0.00,60.00,Sunday
120,4409197.9615510259
2,8, 1, 8, 0,21, 0.00,60.00,Sunday
120,216000.0
2,8, 1, 8, 0,22, 0.00,60.00,Sunday
120,244800.0
2,8, 1, 8, 0,23, 0.00,60.00,Sunday
120,187200.0
2,8, 1, 8, 0,24, 0.00,60.00,Sunday
120,86400.0
2,9, 1, 9, 0, 1, 0.00,60.00,Monday
120,43200.0
2,9, 1, 9, 0, 2, 0.00,60.00,Monday
120,43200.0
2,9, 1, 9, 0, 3, 0.00,60.00,Monday
120,43200.0
2,9, 1, 9, 0, 4, 0.00,60.00,Monday
120,43200.0
2,9, 1, 9, 0, 5, 0.00,60.00,Monday
120,43200.0
2,9, 1, 9, 0, 6, 0.00,60.00,Monday
120,6392393.306433491
2,9, 1, 9, 0, 7, 0.00,60.00,Monday
120,6834161.123738272
2,9, 1, 9, 0, 8, 0.00,60.00,Monday
120,6779812.273372898
2,9, 1, 9, 0, 9, 0.00,60.00,Monday
120,6724753.3271835879
2,9, 1, 9, 0,10, 0.00,60.00,Monday
120,6773482.357726032
2,9, 1, 9, 0,11, 0.00,60.00,Monday
120,6786951.585047042
2,9, 1, 9, 0,12, 0.00,60.00,Monday
120,6789973.437070355
2,9, 1, 9, 0,13, 0.00,60.00,Monday
120,6804783.6046020849
2,9, 1, 9, 0,14, 0.00,60.00,Monday
120,6729210.017163902
2,9, 1, 9, 0,15, 0.00,60.00,Monday
120,6704918.823306806
2,9, 1, 9, 0,16, 0.00,60.00,Monday
120,6667849.929559681
2,9, 1, 9, 0,17, 0.00,60.00,Monday
120,6696654.773254451
2,9, 1, 9, 0,18, 0.00,60.00,Monday
120,6832636.511003185
2,9, 1, 9, 0,19, 0.00,60.00,Monday
120,4979414.3259447109
2,9, 1, 9, 0,20, 0.00,60.00,Monday
120,5375209.708556993
2,9, 1, 9, 0,21, 0.00,60.00,Monday
120,259200.0
2,9, 1, 9, 0,22, 0.00,60.00,Monday
120,324000.0
2,9, 1, 9, 0,23, 0.00,60.00,Monday
120,216000.0
2,9, 1, 9, 0,24, 0.00,60.00,Monday
120,57600.0
2,10, 1,10, 0, 1, 0.00,60.00,Tuesday
120,43200.0
2,10, 1,10, 0, 2, 0.00,60.00,Tuesday
120,43200.0
2,10, 1,10, 0, 3, 0.00,60.00,Tuesday
120,43200.0
2,10, 1,10, 0, 4, 0.00,60.00,Tuesday
120,43200.0
2,10, 1,10, 0, 5, 0.00,60.00,Tuesday
120,43200.0
2,10, 1,10, 0, 6, 0.00,60.00,Tuesday
120,6563354.102437795
2,10, 1,10, 0, 7, 0.00,60.00,Tuesday
120,6630487.4710683249
2,10, 1,10, 0, 8, 0.00,60.00,Tuesday
120,6750538.775637219
2,10, 1,10, 0, 9, 0.00,60.00,Tuesday
120,6735848.925065798
2,10, 1,10, 0,10, 0.00,60.00,Tuesday
120,6888581.545930452
2,10, 1,10, 0,11, 0.00,60.00,Tuesday
120,6951410.758844838
2,10, 1,10, 0,12, 0.00,60.00,Tuesday
120,6975038.66131168
2,10, 1,10, 0,13, 0.00,60.00,Tuesday
120,7001598.399706576
2,10, 1,10, 0,14, 0.00,60.00,Tuesday
120,6925776.464317892
2,10, 1,10, 0,15, 0.00,60.00,Tuesday
120,6897456.576610979
2,10, 1,10, 0,16, 0.00,60.00,Tuesday
120,6856024.451712044
2,10, 1,10, 0,17, 0.00,60.00,Tuesday
120,6882450.511426732
2,10, 1,10, 0,18, 0.00,60.00,Tuesday
120,7011751.733004494
2,10, 1,10, 0,19, 0.00,60.00,Tuesday
120,5243606.701242034
2,10, 1,10, 0,20, 0.00,60.00,Tuesday
120,6798062.0190936769
2,10, 1,10, 0,21, 0.00,60.00,Tuesday
120,259200.0
2,10, 1,10, 0,22, 0.00,60.00,Tuesday
120,324000.0
2,10, 1,10, 0,23, 0.00,60.00,Tuesday
120,216000.0
2,10, 1,10, 0,24, 0.00,60.00,Tuesday
120,57600.0
2,11, 1,11, 0, 1, 0.00,60.00,Wednesday
120,43200.0
2,11, 1,11, 0, 2, 0.00,60.00,Wednesday
120,43200.0
2,11, 1,11, 0, 3, 0.00,60.00,Wednesday
120,43200.0
2,11, 1,11, 0, 4, 0.00,60.00,Wednesday
120,43200.0
2,11, 1,11, 0, 5, 0.00,60.00,Wednesday
120,43200.0
2,11, 1,11, 0, 6, 0.00,60.00,Wednesday
120,5744789.270083732
2,11, 1,11, 0, 7, 0.00,60.00,Wednesday
120,6627117.352938966
2,11, 1,11, 0, 8, 0.00,60.00,Wednesday
120,6365497.0463394629
2,11, 1,11, 0, 9, 0.00,60.00,Wednesday
120,6654867.316069274
2,11, 1,11, 0,10, 0.00,60.00,Wednesday
120,6656899.205716556
2,11, 1,11, 0,11, 0.00,60.00,Wednesday
120,5493391.0540459449
2,11, 1,11, 0,12, 0.00,60.00,Wednesday
120,2242495.4165723675
2,11, 1,11, 0,13, 0.00,60.00,Wednesday
120,4501119.720593196
2,11, 1,11, 0,14, 0.00,60.00,Wednesday
120,5681667.168983154
2,11, 1,11, 0,15, 0.00,60.00,Wednesday
120,5612869.206090082
2,11, 1,11, 0,16, 0.00,60.00,Wednesday
120,6274426.689425407
2,11, 1,11, 0,17, 0.00,60.00,Wednesday
120,5219088.256623267
2,11, 1,11, 0,18, 0.00,60.00,Wednesday
120,4507998.510551719
2,11, 1,11, 0,19, 0.00,60.00,Wednesday
120,2866566.4883044299
2,11, 1,11, 0,20, 0.00,60.00,Wednesday
120,2394451.922523761
2,11, 1,11, 0,21, 0.00,60.00,Wednesday
120,259200.0
2,11, 1,11, 0,22, 0.00,60.00,Wednesday
120,324000.0
2,11, 1,11, 0,23, 0.00,60.00,Wednesday
120,216000.0
2,11, 1,11, 0,24, 0.00,60.00,Wednesday
120,57600.0
2,12, 1,12, 0, 1, 0.00,60.00,Thursday
120,43200.0
2,12, 1,12, 0, 2, 0.00,60.00,Thursday
120,43200.0
2,12, 1,12, 0, 3, 0.00,60.00,Thursday
120,43200.0
2,12, 1,12, 0, 4, 0.00,60.00,Thursday
120,43200.0
2,12, 1,12, 0, 5, 0.00,60.00,Thursday
120,43200.0
2,12, 1,12, 0, 6, 0.00,60.00,Thursday
120,5129041.861679836
2,12, 1,12, 0, 7, 0.00,60.00,Thursday
120,6743038.864771395
2,12, 1,12, 0, 8, 0.00,60.00,Thursday
120,5931359.639164849
2,12, 1,12, 0, 9, 0.00,60.00,Thursday
120,5294441.546413268
2,12, 1,12, 0,10, 0.00,60.00,Thursday
120,2240150.8830391319
2,12, 1,12, 0,11, 0.00,60.00,Thursday
120,4326068.644459821
2,12, 1,12, 0,12, 0.00,60.00,Thursday
120,4436566.3220465
2,12, 1,12, 0,13, 0.00,60.00,Thursday
120,4538616.926470496
2,12, 1,12, 0,14, 0.00,60.00,Thursday
120,4521165.204276352
2,12, 1,12, 0,15, 0.00,60.00,Thursday
120,4527979.260159331
2,12, 1,12, 0,16, 0.00,60.00,Thursday
120,4653915.707892729
2,12, 1,12, 0,17, 0.00,60.00,Thursday
120,4649725.247007856
2,12, 1,12, 0,18, 0.00,60.00,Thursday
120,4655874.890395045
2,12, 1,12, 0,19, 0.00,60.00,Thursday
120,2931082.827066246
2,12, 1,12, 0,20, 0.00,60.00,Thursday
120,2436799.744874793
2,12, 1,12, 0,21, 0.00,60.00,Thursday
120,259200.0
2,12, 1,12, 0,22, 0.00,60.00,Thursday
120,324000.0
2,12, 1,12, 0,23, 0.00,60.00,Thursday
120,216000.0
2,12, 1,12, 0,24, 0.00,60.00,Thursday
120,57600.0
2,13, 1,13, 0, 1, 0.00,60.00,Friday
120,43200.0
2,13, 1,13, 0, 2, 0.00,60.00,Friday
120,43200.0
2,13, 1,13, 0, 3, 0.00,60.00,Friday
120,43200.0
2,13, 1,13, 0, 4, 0.00,60.00,Friday
120,43200.0
2,13, 1,13, 0, 5, 0.00,60.00,Friday
120,43200.0
2,13, 1,13, 0, 6, 0.00,60.00,Friday
120,5105831.457145291
2,13, 1,13, 0, 7, 0.00,60.00,Friday
120,6368223.395781898
2,13, 1,13, 0, 8, 0.00,60.00,Friday
120,5852065.245308654
2,13, 1,13, 0, 9, 0.00,60.00,Friday
120,5431985.76756769
2,13, 1,13, 0,10, 0.00,60.00,Friday
120,2254881.8156103959
2,13, 1,13, 0,11, 0.00,60.00,Friday
120,4352579.649001179
2,13, 1,13, 0,12, 0.00,60.00,Friday
120,4799958.245375341
2,13, 1,13, 0,13, 0.00,60.00,Friday
120,4856860.138970377
2,13, 1,13, 0,14, 0.00,60.00,Friday
120,5116450.9653123239
2,13, 1,13, 0,15, 0.00,60.00,Friday
120,5292131.04468581
2,13, 1,13, 0,16, 0.00,60.00,Friday
120,5426808.243772336
2,13, 1,13, 0,17, 0.00,60.00,Friday
120,5349385.300083336
2,13, 1,13, 0,18, 0.00,60.00,Friday
120,4597540.329818605
2,13, 1,13, 0,19, 0.00,60.00,Friday
120,2467076.2868059247
2,13, 1,13, 0,20, 0.00,60.00,Friday
120,2406499.229535823
2,13, 1,13, 0,21, 0.00,60.00,Friday
120,259200.0
2,13, 1,13, 0,22, 0.00,60.00,Friday
120,324000.0
2,13, 1,13, 0,23, 0.00,60.00,Friday
120,216000.0
2,13, 1,13, 0,24, 0.00,60.00,Friday
120,57600.0
2,14, 1,14, 0, 1, 0.00,60.00,Saturday
120,43200.0
2,14, 1,14, 0, 2, 0.00,60.00,Saturday
120,43200.0
2,14, 1,14, 0, 3, 0.00,60.00,Saturday
120,43200.0
2,14, 1,14, 0, 4, 0.00,60.00,Saturday
120,43200.0
2,14, 1,14, 0, 5, 0.00,60.00,Saturday
120,43200.0
2,14, 1,14, 0, 6, 0.00,60.00,Saturday
120,5048144.590773614
2,14, 1,14, 0, 7, 0.00,60.00,Saturday
120,6454344.942348929
2,14, 1,14, 0, 8, 0.00,60.00,Saturday
120,2256843.8111770499
2,14, 1,14, 0, 9, 0.00,60.00,Saturday
120,309600.0
2,14, 1,14, 0,10, 0.00,60.00,Saturday
120,1025204.0547766998
2,14, 1,14, 0,11, 0.00,60.00,Saturday
120,4634152.746739827
2,14, 1,14, 0,12, 0.00,60.00,Saturday
120,4454188.057107144
2,14, 1,14, 0,13, 0.00,60.00,Saturday
120,4551563.293108106
2,14, 1,14, 0,14, 0.00,60.00,Saturday
120,4815046.157511803
2,14, 1,14, 0,15, 0.00,60.00,Saturday
120,5014815.388350438
2,14, 1,14, 0,16, 0.00,60.00,Saturday
120,5274636.485511925
2,14, 1,14, 0,17, 0.00,60.00,Saturday
120,3423088.632143473
2,14, 1,14, 0,18, 0.00,60.00,Saturday
120,3168090.0215329399
2,14, 1,14, 0,19, 0.00,60.00,Saturday
120,3177892.5067186385
2,14, 1,14, 0,20, 0.00,60.00,Saturday
120,3157285.1733506035
2,14, 1,14, 0,21, 0.00,60.00,Saturday
120,223200.0
2,14, 1,14, 0,22, 0.00,60.00,Saturday
120,223200.0
2,14, 1,14, 0,23, 0.00,60.00,Saturday
120,201600.00000000004
2,14, 1,14, 0,24, 0.00,60.00,Saturday
120,72000.0
2,15, 1,15, 0, 1, 0.00,60.00,Sunday
120,43200.0
2,15, 1,15, 0, 2, 0.00,60.00,Sunday
120,43200.0
2,15, 1,15, 0, 3, 0.00,60.00,Sunday
120,43200.0
2,15, 1,15, 0, 4, 0.00,60.00,Sunday
120,43200.0
2,15, 1,15, 0, 5, 0.00,60.00,Sunday
120,43200.0
2,15, 1,15, 0, 6, 0.00,60.00,Sunday
120,5579453.439682485
2,15, 1,15, 0, 7, 0.00,60.00,Sunday
120,6846289.782157255
2,15, 1,15, 0, 8, 0.00,60.00,Sunday
120,6201285.934888057
2,15, 1,15, 0, 9, 0.00,60.00,Sunday
120,2907958.327188
2,15, 1,15, 0,10, 0.00,60.00,Sunday
120,252000.0
2,15, 1,15, 0,11, 0.00,60.00,Sunday
120,4325444.722356118
2,15, 1,15, 0,12, 0.00,60.00,Sunday
120,5467694.366988981
2,15, 1,15, 0,13, 0.00,60.00,Sunday
120,5496878.49269904
2,15, 1,15, 0,14, 0.00,60.00,Sunday
120,6069470.284854402
2,15, 1,15, 0,15, 0.00,60.00,Sunday
120,6351680.143992796
2,15, 1,15, 0,16, 0.00,60.00,Sunday
120,6678883.666163593
2,15, 1,15, 0,17, 0.00,60.00,Sunday
120,4271071.391499276
2,15, 1,15, 0,18, 0.00,60.00,Sunday
120,4410909.397828139
2,15, 1,15, 0,19, 0.00,60.00,Sunday
120,4418002.359971782
2,15, 1,15, 0,20, 0.00,60.00,Sunday
120,4387623.815993678
2,15, 1,15, 0,21, 0.00,60.00,Sunday
120,216000.0
2,15, 1,15, 0,22, 0.00,60.00,Sunday
120,244800.0
2,15, 1,15, 0,23, 0.00,60.00,Sunday
120,187200.0
2,15, 1,15, 0,24, 0.00,60.00,Sunday
120,86400.0
2,16, 1,16, 0, 1, 0.00,60.00,Monday
120,43200.0
2,16, 1,16, 0, 2, 0.00,60.00,Monday
120,43200.0
2,16, 1,16, 0, 3, 0.00,60.00,Monday
120,43200.0
2,16, 1,16, 0, 4, 0.00,60.00,Monday
120,43200.0
2,16, 1,16, 0, 5, 0.00,60.00,Monday
120,43200.0
2,16, 1,16, 0, 6, 0.00,60.00,Monday
120,5395093.048456223
2,16, 1,16, 0, 7, 0.00,60.00,Monday
120,6891167.361428711
2,16, 1,16, 0, 8, 0.00,60.00,Monday
120,5958016.926974783
2,16, 1,16, 0, 9, 0.00,60.00,Monday
120,5897418.8111282479
2,16, 1,16, 0,10, 0.00,60.00,Monday
120,5320493.959969405
2,16, 1,16, 0,11, 0.00,60.00,Monday
120,4948561.125786144
2,16, 1,16, 0,12, 0.00,60.00,Monday
120,4944426.618276698
2,16, 1,16, 0,13, 0.00,60.00,Monday
120,4941761.030274389
2,16, 1,16, 0,14, 0.00,60.00,Monday
120,5371213.969710885
2,16, 1,16, 0,15, 0.00,60.00,Monday
120,5619203.396629436
2,16, 1,16, 0,16, 0.00,60.00,Monday
120,5869021.746592767
2,16, 1,16, 0,17, 0.00,60.00,Monday
120,5852150.068361525
2,16, 1,16, 0,18, 0.00,60.00,Monday
120,5085310.328963239
2,16, 1,16, 0,19, 0.00,60.00,Monday
120,2842573.3097164134
2,16, 1,16, 0,20, 0.00,60.00,Monday
120,2375009.6858547695
2,16, 1,16, 0,21, 0.00,60.00,Monday
120,259200.0
2,16, 1,16, 0,22, 0.00,60.00,Monday
120,324000.0
2,16, 1,16, 0,23, 0.00,60.00,Monday
120,216000.0
2,16, 1,16, 0,24, 0.00,60.00,Monday
120,57600.0
2,17, 1,17, 0, 1, 0.00,60.00,Tuesday
120,43200.0
2,17, 1,17, 0, 2, 0.00,60.00,Tuesday
120,43200.0
2,17, 1,17, 0, 3, 0.00,60.00,Tuesday
120,43200.0
2,17, 1,17, 0, 4, 0.00,60.00,Tuesday
120,43200.0
2,17, 1,17, 0, 5, 0.00,60.00,Tuesday
120,43200.0
2,17, 1,17, 0, 6, 0.00,60.00,Tuesday
120,5617189.2025937479
2,17, 1,17, 0, 7, 0.00,60.00,Tuesday
120,6907612.922146844
2,17, 1,17, 0, 8, 0.00,60.00,Tuesday
120,6053206.860538962
2,17, 1,17, 0, 9, 0.00,60.00,Tuesday
120,5895312.127097225
2,17, 1,17, 0,10, 0.00,60.00,Tuesday
120,5531999.433894804
2,17, 1,17, 0,11, 0.00,60.00,Tuesday
120,5310868.475024672
2,17, 1,17, 0,12, 0.00,60.00,Tuesday
120,5227583.568120576
2,17, 1,17, 0,13, 0.00,60.00,Tuesday
120,5129872.007635016
2,17, 1,17, 0,14, 0.00,60.00,Tuesday
120,5338824.539930037
2,17, 1,17, 0,15, 0.00,60.00,Tuesday
120,5350013.544064896
2,17, 1,17, 0,16, 0.00,60.00,Tuesday
120,5348540.231339525
2,17, 1,17, 0,17, 0.00,60.00,Tuesday
120,5296964.686964605
2,17, 1,17, 0,18, 0.00,60.00,Tuesday
120,4575148.388016687
2,17, 1,17, 0,19, 0.00,60.00,Tuesday
120,2458607.566717063
2,17, 1,17, 0,20, 0.00,60.00,Tuesday
120,2399098.5912509497
2,17, 1,17, 0,21, 0.00,60.00,Tuesday
120,259200.0
2,17, 1,17, 0,22, 0.00,60.00,Tuesday
120,324000.0
2,17, 1,17, 0,23, 0.00,60.00,Tuesday
120,216000.0
2,17, 1,17, 0,24, 0.00,60.00,Tuesday
120,57600.0
2,18, 1,18, 0, 1, 0.00,60.00,Wednesday
120,43200.0
2,18, 1,18, 0, 2, 0.00,60.00,Wednesday
120,43200.0
2,18, 1,18, 0, 3, 0.00,60.00,Wednesday
120,43200.0
2,18, 1,18, 0, 4, 0.00,60.00,Wednesday
120,43200.0
2,18, 1,18, 0, 5, 0.00,60.00,Wednesday
120,43200.0
2,18, 1,18, 0, 6, 0.00,60.00,Wednesday
120,5340857.046893761
2,18, 1,18, 0, 7, 0.00,60.00,Wednesday
120,6850590.708847254
2,18, 1,18, 0, 8, 0.00,60.00,Wednesday
120,6068745.218332951
2,18, 1,18, 0, 9, 0.00,60.00,Wednesday
120,5769450.535340466
2,18, 1,18, 0,10, 0.00,60.00,Wednesday
120,5888648.714861223
2,18, 1,18, 0,11, 0.00,60.00,Wednesday
120,4931221.769914573
2,18, 1,18, 0,12, 0.00,60.00,Wednesday
120,2289446.9941198325
2,18, 1,18, 0,13, 0.00,60.00,Wednesday
120,4490637.449430111
2,18, 1,18, 0,14, 0.00,60.00,Wednesday
120,5770662.787635317
2,18, 1,18, 0,15, 0.00,60.00,Wednesday
120,6116672.959103795
2,18, 1,18, 0,16, 0.00,60.00,Wednesday
120,6234385.103627272
2,18, 1,18, 0,17, 0.00,60.00,Wednesday
120,6250471.573009784
2,18, 1,18, 0,18, 0.00,60.00,Wednesday
120,5574300.8829383379
2,18, 1,18, 0,19, 0.00,60.00,Wednesday
120,2807391.5407351755
2,18, 1,18, 0,20, 0.00,60.00,Wednesday
120,3390810.0868346916
2,18, 1,18, 0,21, 0.00,60.00,Wednesday
120,259200.0
2,18, 1,18, 0,22, 0.00,60.00,Wednesday
120,324000.0
2,18, 1,18, 0,23, 0.00,60.00,Wednesday
120,216000.0
2,18, 1,18, 0,24, 0.00,60.00,Wednesday
120,57600.0
2,19, 1,19, 0, 1, 0.00,60.00,Thursday
120,43200.0
2,19, 1,19, 0, 2, 0.00,60.00,Thursday
120,43200.0
2,19, 1,19, 0, 3, 0.00,60.00,Thursday
120,43200.0
2,19, 1,19, 0, 4, 0.00,60.00,Thursday
120,43200.0
2,19, 1,19, 0, 5, 0.00,60.00,Thursday
120,43200.0
2,19, 1,19, 0, 6, 0.00,60.00,Thursday
120,6517137.748725832
2,19, 1,19, 0, 7, 0.00,60.00,Thursday
120,6822856.491979133
2,19, 1,19, 0, 8, 0.00,60.00,Thursday
120,6832527.252902763
2,19, 1,19, 0, 9, 0.00,60.00,Thursday
120,6736227.52540311
2,19, 1,19, 0,10, 0.00,60.00,Thursday
120,6811158.697435177
2,19, 1,19, 0,11, 0.00,60.00,Thursday
120,6830454.810859505
2,19, 1,19, 0,12, 0.00,60.00,Thursday
120,6825366.438656621
2,19, 1,19, 0,13, 0.00,60.00,Thursday
120,6834195.762287899
2,19, 1,19, 0,14, 0.00,60.00,Thursday
120,6752918.094969137
2,19, 1,19, 0,15, 0.00,60.00,Thursday
120,6724438.3782708239
2,19, 1,19, 0,16, 0.00,60.00,Thursday
120,6688868.17893528
2,19, 1,19, 0,17, 0.00,60.00,Thursday
120,6723936.704514485
2,19, 1,19, 0,18, 0.00,60.00,Thursday
120,6865384.06329955
2,19, 1,19, 0,19, 0.00,60.00,Thursday
120,4911508.331230855
2,19, 1,19, 0,20, 0.00,60.00,Thursday
120,5449618.302681338
2,19, 1,19, 0,21, 0.00,60.00,Thursday
120,259200.0
2,19, 1,19, 0,22, 0.00,60.00,Thursday
120,324000.0
2,19, 1,19, 0,23, 0.00,60.00,Thursday
120,216000.0
2,19, 1,19, 0,24, 0.00,60.00,Thursday
120,57600.0
2,20, 1,20, 0, 1, 0.00,60.00,Friday
120,43200.0
2,20, 1,20, 0, 2, 0.00,60.00,Friday
120,43200.0
2,20, 1,20, 0, 3, 0.00,60.00,Friday
120,43200.0
2,20, 1,20, 0, 4, 0.00,60.00,Friday
120,43200.0
2,20, 1,20, 0, 5, 0.00,60.00,Friday
120,43200.0
2,20, 1,20, 0, 6, 0.00,60.00,Friday
120,6551302.903197286
2,20, 1,20, 0, 7, 0.00,60.00,Friday
120,6628880.0243206289
2,20, 1,20, 0, 8, 0.00,60.00,Friday
120,6582512.455924457
2,20, 1,20, 0, 9, 0.00,60.00,Friday
120,6718379.160726383
2,20, 1,20, 0,10, 0.00,60.00,Friday
120,6868521.410886166
2,20, 1,20, 0,11, 0.00,60.00,Friday
120,6923835.628978008
2,20, 1,20, 0,12, 0.00,60.00,Friday
120,6931997.622236992
2,20, 1,20, 0,13, 0.00,60.00,Friday
120,6950875.907494985
2,20, 1,20, 0,14, 0.00,60.00,Friday
120,6868087.749599651
2,20, 1,20, 0,15, 0.00,60.00,Friday
120,6832903.466022767
2,20, 1,20, 0,16, 0.00,60.00,Friday
120,6789591.704854294
2,20, 1,20, 0,17, 0.00,60.00,Friday
120,6820495.030131571
2,20, 1,20, 0,18, 0.00,60.00,Friday
120,6957934.775918253
2,20, 1,20, 0,19, 0.00,60.00,Friday
120,5050344.672753057
2,20, 1,20, 0,20, 0.00,60.00,Friday
120,6018421.604005794
2,20, 1,20, 0,21, 0.00,60.00,Friday
120,259200.0
2,20, 1,20, 0,22, 0.00,60.00,Friday
120,324000.0
2,20, 1,20, 0,23, 0.00,60.00,Friday
120,216000.0
2,20, 1,20, 0,24, 0.00,60.00,Friday
120,57600.0
2,21, 1,21, 0, 1, 0.00,60.00,Saturday
120,43200.0
2,21, 1,21, 0, 2, 0.00,60.00,Saturday
120,43200.0
2,21, 1,21, 0, 3, 0.00,60.00,Saturday
120,43200.0
2,21, 1,21, 0, 4, 0.00,60.00,Saturday
120,43200.0
2,21, 1,21, 0, 5, 0.00,60.00,Saturday
120,43200.0
2,21, 1,21, 0, 6, 0.00,60.00,Saturday
120,6170457.469268821
2,21, 1,21, 0, 7, 0.00,60.00,Saturday
120,6547551.846425542
2,21, 1,21, 0, 8, 0.00,60.00,Saturday
120,6614525.430385351
2,21, 1,21, 0, 9, 0.00,60.00,Saturday
120,6622598.835867835
2,21, 1,21, 0,10, 0.00,60.00,Saturday
120,6548436.45890621
2,21, 1,21, 0,11, 0.00,60.00,Saturday
120,6550539.2678860309
2,21, 1,21, 0,12, 0.00,60.00,Saturday
120,6737693.613291763
2,21, 1,21, 0,13, 0.00,60.00,Saturday
120,6882748.084134527
2,21, 1,21, 0,14, 0.00,60.00,Saturday
120,6834166.694616389
2,21, 1,21, 0,15, 0.00,60.00,Saturday
120,6830955.304087406
2,21, 1,21, 0,16, 0.00,60.00,Saturday
120,6800512.752417269
2,21, 1,21, 0,17, 0.00,60.00,Saturday
120,5392646.5619565979
2,21, 1,21, 0,18, 0.00,60.00,Saturday
120,6760393.645395223
2,21, 1,21, 0,19, 0.00,60.00,Saturday
120,6658205.071152928
2,21, 1,21, 0,20, 0.00,60.00,Saturday
120,5868224.466313211
2,21, 1,21, 0,21, 0.00,60.00,Saturday
120,223200.0
2,21, 1,21, 0,22, 0.00,60.00,Saturday
120,223200.0
2,21, 1,21, 0,23, 0.00,60.00,Saturday
120,201600.00000000004
2,21, 1,21, 0,24, 0.00,60.00,Saturday
120,72000.0
2,22, 1,22, 0, 1, 0.00,60.00,Sunday
120,43200.0
2,22, 1,22, 0, 2, 0.00,60.00,Sunday
120,43200.0
2,22, 1,22, 0, 3, 0.00,60.00,Sunday
120,43200.0
2,22, 1,22, 0, 4, 0.00,60.00,Sunday
120,43200.0
2,22, 1,22, 0, 5, 0.00,60.00,Sunday
120,43200.0
2,22, 1,22, 0, 6, 0.00,60.00,Sunday
120,5850467.645786534
2,22, 1,22, 0, 7, 0.00,60.00,Sunday
120,6419570.309778074
2,22, 1,22, 0, 8, 0.00,60.00,Sunday
120,6507855.621375808
2,22, 1,22, 0, 9, 0.00,60.00,Sunday
120,6537759.505744826
2,22, 1,22, 0,10, 0.00,60.00,Sunday
120,6483187.626274948
2,22, 1,22, 0,11, 0.00,60.00,Sunday
120,6485582.435196691
2,22, 1,22, 0,12, 0.00,60.00,Sunday
120,6647193.0637476169
2,22, 1,22, 0,13, 0.00,60.00,Sunday
120,6755711.036689694
2,22, 1,22, 0,14, 0.00,60.00,Sunday
120,6693056.923189229
2,22, 1,22, 0,15, 0.00,60.00,Sunday
120,6666910.241986125
2,22, 1,22, 0,16, 0.00,60.00,Sunday
120,6631887.892159967
2,22, 1,22, 0,17, 0.00,60.00,Sunday
120,4921250.320816414
2,22, 1,22, 0,18, 0.00,60.00,Sunday
120,5307699.064816968
2,22, 1,22, 0,19, 0.00,60.00,Sunday
120,5656553.421182181
2,22, 1,22, 0,20, 0.00,60.00,Sunday
120,5163802.031639113
2,22, 1,22, 0,21, 0.00,60.00,Sunday
120,216000.0
2,22, 1,22, 0,22, 0.00,60.00,Sunday
120,244800.0
2,22, 1,22, 0,23, 0.00,60.00,Sunday
120,187200.0
2,22, 1,22, 0,24, 0.00,60.00,Sunday
120,86400.0
2,23, 1,23, 0, 1, 0.00,60.00,Monday
120,43200.0
2,23, 1,23, 0, 2, 0.00,60.00,Monday
120,43200.0
2,23, 1,23, 0, 3, 0.00,60.00,Monday
120,43200.0
2,23, 1,23, 0, 4, 0.00,60.00,Monday
120,43200.0