Program Version,EnergyPlus, Version 8.9.0-40101eaafd, YMD=2019.01.10 16:40
1,5,Environment Title[],Latitude[deg],Longitude[deg],Time Zone[],Elevation[m]
2,8,Day of Simulation[],Month[],Day of Month[],DST Indicator[1=yes 0=no],Hour[],StartMinute[],EndMinute[],DayType
3,5,Cumulative Day of Simulation[],Month[],Day of Month[],DST Indicator[1=yes 0=no],DayType  ! When Daily Report Variables Requested
4,2,Cumulative Days of Simulation[],Month[]  ! When Monthly Report Variables Requested
5,1,Cumulative Days of Simulation[] ! When Run Period Report Variables Requested
6,1,Calendar Year of Simulation[] ! When Annual Report Variables Requested
7,1,Environment,Site Outdoor Air Drybulb Temperature [C] !Hourly
314,1,ZONE ONE,Zone Air Temperature [C] !Hourly
315,1,ERV_1_HX,Heat Exchanger Total Heating Rate [W] !Hourly
379,1,ERV_1_FANSUPPLY,Fan Electric Power [W] !Hourly
393,1,ERV_1_FANSUPPLY,Fan Air Mass Flow Rate [kg/s] !Hourly
394,1,ERV_1_FANEXHAUST,Fan Electric Power [W] !Hourly
396,1,ERV_1_FANEXHAUST,Fan Air Mass Flow Rate [kg/s] !Hourly
397,1,RADIATOR,Baseboard Total Heating Rate [W] !Hourly
448,1,RADIATOR,Baseboard Hot Water Mass Flow Rate [kg/s] !Hourly
449,1,RADIATOR,Baseboard Water Inlet Temperature [C] !Hourly
450,1,RADIATOR,Baseboard Water Outlet Temperature [C] !Hourly
587,1,DISTRICT HEATING 1,District Heating Rate [W] !Hourly
588,1,DISTRICT HEATING 1,District Heating Inlet Temperature [C] !Hourly
589,1,DISTRICT HEATING 1,District Heating Outlet Temperature [C] !Hourly
590,1,DISTRICT HEATING 1,District Heating Mass Flow Rate [kg/s] !Hourly
120,1,DistrictHeating:Facility [J] !Hourly
End of Data Dictionary
1,ANNUAL SIM 1,  59.65,  17.95,   1.00,  61.00
2,1, 1, 1, 0, 1, 0.00,60.00,Sunday
7,4.0
314,18.166014435752378
315,0.0
379,0.0
393,0.0
394,0.0
396,0.0
397,0.0
448,0.0
449,59.99936038375889
450,59.99936038375889
587,0.0
588,49.79344392301866
589,49.79344392301866
590,0.0
120,43200.0
2,1, 1, 1, 0, 2, 0.00,60.00,Sunday
7,5.3
314,18.078391099165278
315,0.0
379,0.0
393,0.0
394,0.0
396,0.0
397,0.0
448,0.0
449,59.99936038375889
450,59.99936038375889
587,0.0
588,49.79344392301866
589,49.79344392301866
590,0.0
120,43200.0
2,1, 1, 1, 0, 3, 0.00,60.00,Sunday
7,6.2
314,18.063294172478906
315,0.0
379,0.0
393,0.0
394,0.0
396,0.0
397,0.0
448,0.0
449,59.99936038375889
450,59.99936038375889
587,0.0
588,49.79344392301866
589,49.79344392301866
590,0.0
120,43200.0
2,1, 1, 1, 0, 4, 0.00,60.00,Sunday
7,6.8
314,18.0367394065506
315,0.0
379,0.0
393,0.0
394,0.0
396,0.0
397,0.0
448,0.0
449,59.99936038375889
450,59.99936038375889
587,0.0
588,49.79344392301866
589,49.79344392301866
590,0.0
120,43200.0
2,1, 1, 1, 0, 5, 0.00,60.00,Sunday
7,7.2
314,17.995928326558013
315,0.0
379,0.0
393,0.0
394,0.0
396,0.0
397,0.0
448,0.0
449,59.99936038375889
450,59.99936038375889
587,0.0
588,49.79344392301866
589,49.79344392301866
590,0.0
120,43200.0
2,1, 1, 1, 0, 6, 0.00,60.00,Sunday
7,7.5
314,20.4800444871621
315,0.0
379,0.0
393,0.0
394,0.0
396,0.0
397,520.3400949148635
448,0.01817996363636364
449,59.97011401342827
450,54.33658258101487
587,763.6504882091718
588,49.79325165120407
589,55.30230427121373
590,0.01817996363636364
120,2792341.757553019
2,1, 1, 1, 0, 7, 0.00,60.00,Sunday
7,7.5
314,20.438559999186795
315,0.0
379,0.0
393,0.0
394,0.0
396,0.0
397,485.56358665245008
448,0.017998164000000005
449,59.97403650101462
450,53.725801080527379
587,769.7887685067737
588,49.77068134773817
589,55.908573071228328
590,0.017998164000000005
120,2836039.566624386
2,1, 1, 1, 0, 8, 0.00,60.00,Sunday
7,6.7
314,20.642448109202534
315,0.0
379,0.0
393,0.0
394,0.0
396,0.0
397,408.32446133436408
448,0.014998470000000002
449,59.97917395878366
450,54.790135691729407
587,643.0570355850596
588,49.74343352692076
589,54.87083903795099
590,0.014998470000000002
120,2495005.3281062145
2,1, 1, 1, 0, 9, 0.00,60.00,Sunday
7,6.0
314,20.559700150178054
315,0.0
379,0.0
393,0.0
394,0.0
396,0.0
397,551.9555721133695
448,0.019997960000000003
449,59.98273180714158
450,53.04955894535776
587,858.4969168768431
588,49.73365641696582
589,56.57887281259417
590,0.019997960000000003
120,3356988.9007566354
2,1, 1, 1, 0,10, 0.00,60.00,Sunday
7,5.2
314,20.76414281387365
315,0.0
379,0.0
393,0.0
394,0.0
396,0.0
397,561.9715107188651
448,0.019997960000000003
449,59.986416358387298
450,53.06995543662947
587,859.9152947984795
588,49.715869687114899
589,56.572401070740799
590,0.019997960000000003
120,3347695.061274526
2,1, 1, 1, 0,11, 0.00,60.00,Sunday
7,5.2
314,20.54637343227802
315,0.0
379,0.0
393,0.0
394,0.0
396,0.0
397,816.9563612721763
448,0.029996940000000004
449,59.98989873610411
450,49.64293539994394
587,1290.694441104691
588,49.70864948011334
589,60.0
590,0.029996940000000004
120,4876899.987976887
2,1, 1, 1, 0,12, 0.00,60.00,Sunday
7,5.2
314,20.60209939559324
315,0.0
379,0.0
393,0.0
394,0.0
396,0.0
397,810.8746542632011
448,0.029996940000000004
449,59.992952587316448
450,49.691316387770459
587,1289.7364148383356
588,49.71629206099064
589,60.0
590,0.029996940000000004
120,4895051.093418008
2,1, 1, 1, 0,13, 0.00,60.00,Sunday
7,5.2
314,20.69910385634361
315,0.0
379,0.0
393,0.0
394,0.0
396,0.0
397,804.7627462171522
448,0.029996940000000004
449,59.99508318701063
450,49.76069538368665
587,1286.8127806857628
588,49.739615093080029
589,60.0
590,0.029996940000000004
120,4934926.010468747
2,1, 1, 1, 0,14, 0.00,60.00,Sunday
7,4.6
314,20.53360831957257
315,0.0
379,0.0
393,0.0
394,0.0
396,0.0
397,799.1556029595225
448,0.029996940000000004
449,59.996569655977598
450,49.828052161868018
587,1282.1843105716584
588,49.77653819634993
589,60.0
590,0.029996940000000004
120,4882263.51805797
2,1, 1, 1, 0,15, 0.00,60.00,Sunday
7,4.1
314,20.368735968771327
315,0.0
379,0.0
393,0.0
394,0.0
396,0.0
397,798.5834910884791
448,0.029996940000000004
449,59.99760673018529
450,49.81086990386294
587,1278.1002505864603
588,49.80911822026119
589,60.00000000000001
590,0.029996940000000004
120,4860360.902111257
2,1, 1, 1, 0,16, 0.00,60.00,Sunday
7,3.5
314,20.235704243878936
315,0.0
379,0.0
393,0.0
394,0.0
396,0.0
397,799.4764698409336
448,0.029996940000000004
449,59.99833027230838
450,49.781781224705408
587,1276.1411606456143
588,49.824746553362448
589,60.0
590,0.029996940000000004
120,4817308.178324211
2,1, 1, 1, 0,17, 0.00,60.00,Sunday
7,3.2
314,20.77184363160488
315,0.0
379,0.0
393,0.0
394,0.0
396,0.0
397,602.8530009695467
448,0.022497705000000004
449,59.99877129672815
450,52.329574378576648
587,956.833137802277
588,49.82766717960913
589,57.45693158429824
590,0.022497705000000004
120,3674999.2960881965
2,1, 1, 1, 0,18, 0.00,60.00,Sunday
7,2.9
314,20.56962099644502
315,0.0
379,0.0
393,0.0
394,0.0
396,0.0
397,365.9531431042898
448,0.014998470000000002
449,59.99900876477025
450,54.88102183687351
587,637.4740271922417
588,49.834397946228168
589,54.917265766130629
590,0.014998470000000002
120,2618906.4978920707
2,1, 1, 1, 0,19, 0.00,60.00,Sunday
7,2.6
314,20.553301205333363
315,0.0
379,0.0
393,0.0
394,0.0
396,0.0
397,393.2280415462735
448,0.014998470000000002
449,59.99917205074009
450,54.82477453273481
587,638.3218012338256
588,49.823136002350818
589,54.91276680055114
590,0.014998470000000002
120,2600358.484441772
2,1, 1, 1, 0,20, 0.00,60.00,Sunday
7,2.5
314,20.43727939731788
315,0.0
379,0.0
393,0.0
394,0.0
396,0.0
397,307.0538565534096
448,0.011998776000000003
449,59.99931157688928
450,55.84376142968887
587,511.61499537649
588,49.801828416261418
589,53.88117179912055
590,0.011998776000000003
120,2093813.983355364
2,1, 1, 1, 0,21, 0.00,60.00,Sunday
7,2.4
314,19.33859210305374
315,0.0
379,0.0
393,0.0
394,0.0
396,0.0
397,0.0
448,0.0
449,59.999360285711
450,59.999360285711
587,0.0
588,49.79340613452364
589,49.79340613452364
590,0.0
120,216000.0
2,1, 1, 1, 0,22, 0.00,60.00,Sunday
7,2.3
314,19.115695341637996
315,0.0
379,0.0
393,0.0
394,0.0
396,0.0
397,0.0
448,0.0
449,59.999360285711
450,59.999360285711
587,0.0
588,49.79340613452364
589,49.79340613452364
590,0.0
120,244800.0
2,1, 1, 1, 0,23, 0.00,60.00,Sunday
7,2.3
314,18.72947097085703
315,0.0
379,0.0
393,0.0
394,0.0
396,0.0
397,0.0
448,0.0
449,59.999360285711
450,59.999360285711
587,0.0
588,49.79340613452364
589,49.79340613452364
590,0.0
120,187200.0
2,1, 1, 1, 0,24, 0.00,60.00,Sunday
7,2.2
314,18.471566934502407
315,0.0
379,0.0
393,0.0
394,0.0
396,0.0
397,0.0
448,0.0
449,59.999360285711
450,59.999360285711
587,0.0
588,49.79340613452364
589,49.79340613452364
590,0.0
120,86400.0
2,2, 1, 2, 0, 1, 0.00,60.00,Monday
7,2.2
314,17.965331651604516
315,0.0
379,0.0
393,0.0
394,0.0
396,0.0
397,0.0
448,0.0
449,59.999360285711
450,59.999360285711
587,0.0
588,49.79340613452364
589,49.79340613452364
590,0.0
120,43200.0
2,2, 1, 2, 0, 2, 0.00,60.00,Monday
7,2.2
314,17.792981688945635
315,0.0
379,0.0
393,0.0
394,0.0
396,0.0
397,0.0
448,0.0
449,59.999360285711
450,59.999360285711
587,0.0
588,49.79340613452364
589,49.79340613452364
590,0.0
120,43200.0
2,2, 1, 2, 0, 3, 0.00,60.00,Monday
7,2.1
314,17.6910429604434
315,0.0
379,0.0
393,0.0
394,0.0
396,0.0
397,0.0
448,0.0
449,59.999360285711
450,59.999360285711
587,0.0
588,49.79340613452364
589,49.79340613452364
590,0.0
120,43200.0
2,2, 1, 2, 0, 4, 0.00,60.00,Monday
7,2.1
314,17.618926730478159
315,0.0
379,0.0
393,0.0
394,0.0
396,0.0
397,0.0
448,0.0
449,59.999360285711
450,59.999360285711
587,0.0
588,49.79340613452364
589,49.79340613452364
590,0.0
120,43200.0
2,2, 1, 2, 0, 5, 0.00,60.00,Monday
7,2.1
314,17.534256093272508
315,0.0
379,0.0
393,0.0
394,0.0
396,0.0
397,0.0
448,0.0
449,59.999360285711
450,59.999360285711
587,0.0
588,49.79340613452364
589,49.79340613452364
590,0.0
120,43200.0
2,2, 1, 2, 0, 6, 0.00,60.00,Monday
7,2.0
314,20.20065913139953
315,0.0
379,0.0
393,0.0
394,0.0
396,0.0
397,669.8407854468712
448,0.022997654000000007
449,59.96781896611161
450,52.68389489824923
587,969.2681553901286
588,49.77913489635949
589,56.86968915566002
590,0.022997654000000007
120,3532565.3594044626
2,2, 1, 2, 0, 7, 0.00,60.00,Monday
7,2.0
314,20.569797774162806
315,0.0
379,0.0
393,0.0
394,0.0
396,0.0
397,652.5493154026419
448,0.023997552000000007
449,59.97384371369144
450,51.64965745030682
587,1028.9757140737365
588,49.74474676523267
589,57.94926933339479
590,0.023997552000000007
120,3905912.5706654519
2,2, 1, 2, 0, 8, 0.00,60.00,Monday
7,2.0
314,20.504844258693617
315,0.0
379,0.0
393,0.0
394,0.0
396,0.0
397,521.8945615756918
448,0.019997960000000003
449,59.97993603173566
450,53.042608560273198
587,859.3157489101083
588,49.7236842835351
589,56.57543283947335
590,0.019997960000000003
120,3446336.6960763896
2,2, 1, 2, 0, 9, 0.00,60.00,Monday
7,1.9
314,19.974805232766934
315,0.0
379,0.0
393,0.0
394,0.0
396,0.0
397,891.8502184432068
448,0.033668440468750008
449,59.985239515626577
450,49.75735918224583
587,1446.8214884981367
588,49.72061762236222
589,60.0
590,0.033668440468750008
120,5510957.3585932929
2,2, 1, 2, 0,10, 0.00,60.00,Monday
7,1.9
314,20.09765365211768
315,0.0
379,0.0
393,0.0
394,0.0
396,0.0
397,957.9920397166429
448,0.03609006843750001
449,59.99037049942022
450,49.842887172952007
587,1541.6483326667953
588,49.783033913545299
589,60.0
590,0.03609006843750001
120,5780333.997600463
2,2, 1, 2, 0,11, 0.00,60.00,Monday
7,1.9
314,20.087047952105526
315,0.0
379,0.0
393,0.0
394,0.0
396,0.0
397,856.0701126633943
448,0.03179363171875001
449,59.99360704649927
450,49.7081910088734
587,1355.5518366104704
588,49.80235406738064
589,60.0
590,0.03179363171875001
120,5074386.611797693
2,2, 1, 2, 0,12, 0.00,60.00,Monday
7,1.9
314,20.08266847606737
315,0.0
379,0.0
393,0.0
394,0.0
396,0.0
397,809.8103449222107
448,0.029996940000000004
449,59.99559030891254
450,49.66373776458927
587,1280.961301462544
588,49.786294593094208
589,60.0
590,0.029996940000000004
120,4849060.685265158
2,2, 1, 2, 0,13, 0.00,60.00,Monday
7,1.9
314,20.12446661127582
315,0.0
379,0.0
393,0.0
394,0.0
396,0.0
397,807.0131779645391
448,0.029996940000000004
449,59.99692295447718
450,49.68758506019161
587,1282.6501294111554
588,49.77282218450213
589,60.0
590,0.029996940000000004
120,4912740.465880159
2,2, 1, 2, 0,14, 0.00,60.00,Monday
7,1.6
314,20.08113198042213
315,0.0
379,0.0
393,0.0
394,0.0
396,0.0
397,845.8766594732203
448,0.03179363171875001
449,59.99787529308971
450,49.7924386134425
587,1357.9429403303438
588,49.784357300346929
589,60.0
590,0.03179363171875001
120,5140594.585189238
2,2, 1, 2, 0,15, 0.00,60.00,Monday
7,1.3
314,20.08338765427912
315,0.0
379,0.0
393,0.0
394,0.0
396,0.0
397,883.8918013394024
448,0.03351220640625
449,59.99856270979672
450,49.86820126088471
587,1426.141328434256
588,49.821516341114087
589,60.00000000000001
590,0.03351220640625
120,5378908.782363322
2,2, 1, 2, 0,16, 0.00,60.00,Monday
7,1.0
314,20.084439203260709
315,0.0
379,0.0
393,0.0
394,0.0
396,0.0
397,909.09326811105
448,0.034683961875
449,59.99904520055407
450,49.92867544730717
587,1468.9623011467484
588,49.87011579478802
589,60.0
590,0.034683961875
120,5497064.284128294
2,2, 1, 2, 0,17, 0.00,60.00,Monday
7,0.9
314,20.08417180252327
315,0.0
379,0.0
393,0.0
394,0.0
396,0.0
397,903.2549883494545
448,0.03444961078125
449,59.99936943572312
450,49.920808465486647
587,1453.1830444210543
588,49.9107777631057
589,59.99999999999999
590,0.03444961078125
120,5461858.959915795
2,2, 1, 2, 0,18, 0.00,60.00,Monday
7,0.7
314,20.124608562699156
315,0.0
379,0.0
393,0.0
394,0.0
396,0.0
397,802.0752650056221
448,0.029996940000000004
449,59.9995723574557
450,49.72007816980198
587,1266.3460295944328
588,49.90288532620708
589,60.0
590,0.029996940000000004
120,4918845.706539958
2,2, 1, 2, 0,19, 0.00,60.00,Monday
7,0.6
314,20.650136033868099
315,0.0
379,0.0
393,0.0
394,0.0
396,0.0
397,486.87492219537219
448,0.017998164000000005
449,59.999680640067428
450,53.8356146553525
587,761.9984343227898
588,49.873702721676938
589,55.94944830301685
590,0.017998164000000005
120,3095994.3635620435
2,2, 1, 2, 0,20, 0.00,60.00,Monday
7,0.6
314,20.614623811533244
315,0.0
379,0.0
393,0.0
394,0.0
396,0.0
397,392.85735932813767
448,0.014998470000000002
449,59.99974383255807
450,54.883676772610808
587,635.5919550909136
588,49.863597794972239
589,54.931451726054479
590,0.014998470000000002
120,2576131.038327289
2,2, 1, 2, 0,21, 0.00,60.00,Monday
7,0.6
314,19.16098791380378
315,0.0
379,0.0
393,0.0
394,0.0
396,0.0
397,0.0
448,0.0
449,59.99976089722277
450,59.99976089722277
587,0.0
588,49.85962430959961
589,49.85962430959961
590,0.0
120,259200.0
2,2, 1, 2, 0,22, 0.00,60.00,Monday
7,0.6
314,18.951588112729888
315,0.0
379,0.0
393,0.0
394,0.0
396,0.0
397,0.0
448,0.0
449,59.999760897222767
450,59.999760897222767
587,0.0
588,49.8596243095996
589,49.8596243095996
590,0.0
120,324000.0
2,2, 1, 2, 0,23, 0.00,60.00,Monday
7,0.8
314,18.53123667419266
315,0.0
379,0.0
393,0.0
394,0.0
396,0.0
397,0.0
448,0.0
449,59.999760897222767
450,59.999760897222767
587,0.0
588,49.8596243095996
589,49.8596243095996
590,0.0
120,216000.0
2,2, 1, 2, 0,24, 0.00,60.00,Monday
7,0.9
314,18.261404219283514
315,0.0
379,0.0
393,0.0
394,0.0
396,0.0
397,0.0
448,0.0
449,59.999760897222767
450,59.999760897222767
587,0.0
588,49.8596243095996
589,49.8596243095996
590,0.0
120,57600.0
2,3, 1, 3, 0, 1, 0.00,60.00,Tuesday
7,1.1
314,17.76485553618084
315,0.0
379,0.0
393,0.0
394,0.0
396,0.0
397,0.0
448,0.0
449,59.999760897222767
450,59.999760897222767
587,0.0
588,49.8596243095996
589,49.8596243095996
590,0.0
120,43200.0
2,3, 1, 3, 0, 2, 0.00,60.00,Tuesday
7,0.9
314,17.613858924078188
315,0.0
379,0.0
393,0.0
394,0.0
396,0.0
397,0.0
448,0.0
449,59.999760897222767
450,59.999760897222767
587,0.0
588,49.8596243095996
589,49.8596243095996
590,0.0
120,43200.0
2,3, 1, 3, 0, 3, 0.00,60.00,Tuesday
7,0.6
314,17.538284907546485
315,0.0
379,0.0
393,0.0
394,0.0
396,0.0
397,0.0
448,0.0
449,59.999760897222767
450,59.999760897222767
587,0.0
588,49.8596243095996
589,49.8596243095996
590,0.0
120,43200.0
2,3, 1, 3, 0, 4, 0.00,60.00,Tuesday
7,0.4
314,17.422324122692979
315,0.0
379,0.0
393,0.0
394,0.0
396,0.0
397,0.0
448,0.0
449,59.999760897222767
450,59.999760897222767
587,0.0
588,49.8596243095996
589,49.8596243095996
590,0.0
120,43200.0
2,3, 1, 3, 0, 5, 0.00,60.00,Tuesday
7,0.6
314,17.33998112198338
315,0.0
379,0.0
393,0.0
394,0.0
396,0.0
397,0.0
448,0.0
449,59.999760897222767
450,59.999760897222767
587,0.0
588,49.8596243095996
589,49.8596243095996
590,0.0
120,43200.0
2,3, 1, 3, 0, 6, 0.00,60.00,Tuesday
7,0.9
314,20.19488601355343
315,0.0
379,0.0
393,0.0
394,0.0
396,0.0
397,682.5675448815576
448,0.023286687015625006
449,59.971723013310448
450,52.69114306500537
587,977.2846663262649
588,49.833873719802877
589,56.89059909188183
590,0.023286687015625006
120,3561424.7987745536
2,3, 1, 3, 0, 7, 0.00,60.00,Tuesday
7,1.1
314,20.82348098015073
315,0.0
379,0.0
393,0.0
394,0.0
396,0.0
397,640.5271298218374
448,0.022497705000000004
449,59.977295420192309
450,52.23886705839395
587,960.0653256001433
588,49.79280625282342
589,57.4478549466019
590,0.022497705000000004
120,3657835.1721605167
2,3, 1, 3, 0, 8, 0.00,60.00,Tuesday
7,0.9
314,21.578100436448854
315,0.0
379,0.0
393,0.0
394,0.0
396,0.0
397,870.7289158901771
448,0.029996940000000004
449,59.98283814481539
450,49.76895076379117
587,1280.0399314510257
588,49.79364469629614
589,60.00000000000001
590,0.029996940000000004
120,4960943.753223693
2,3, 1, 3, 0, 9, 0.00,60.00,Tuesday
7,0.8
314,20.071241617386926
315,0.0
379,0.0
393,0.0
394,0.0
396,0.0
397,967.9288083427871
448,0.04282375653125
449,59.959365983157628
450,50.23772721620584
587,1782.6866685717073
588,49.90040560657644
589,59.884849116615118
590,0.04282375653125
120,6720072.006858146
2,3, 1, 3, 0,10, 0.00,60.00,Tuesday
7,0.6
314,20.104811710280143
315,0.0
379,0.0
393,0.0
394,0.0
396,0.0
397,1076.6253884236987
448,0.04187072875
449,59.95227428378019
450,50.11912668345437
587,1740.157503596064
588,50.059793952500758
589,59.99999999999999
590,0.04187072875
120,6494967.012945831
2,3, 1, 3, 0,11, 0.00,60.00,Tuesday
7,1.1
314,20.092736717207367
315,0.0
379,0.0
393,0.0
394,0.0
396,0.0
397,928.2487442474608
448,0.03499643
449,59.97001069056211
450,49.83425342502331
587,1455.3275302247205
588,50.05385937010691
589,59.99999999999999
590,0.03499643
120,5433579.108808993
2,3, 1, 3, 0,12, 0.00,60.00,Tuesday
7,1.6
314,20.084816234546975
315,0.0
379,0.0
393,0.0
394,0.0
396,0.0
397,855.7732147947983
448,0.03194986578125
449,59.97995331205801
450,49.730383003112539
587,1337.8119991361411
588,49.98510983570704
589,60.0
590,0.03194986578125
120,5053723.196890108
2,3, 1, 3, 0,13, 0.00,60.00,Tuesday
7,2.1
314,20.11805595913543
315,0.0
379,0.0
393,0.0
394,0.0
396,0.0
397,808.7172862689123
448,0.029996940000000004
449,59.98618457909504
450,49.66273688672622
587,1264.778679145688
588,49.915388508529257
589,60.00000000000001
590,0.029996940000000004
120,4848403.244924477
2,3, 1, 3, 0,14, 0.00,60.00,Tuesday
7,1.7
314,20.082989600861688
315,0.0
379,0.0
393,0.0
394,0.0
396,0.0
397,845.209881380501
448,0.03163739765625
449,59.99044994350399
450,49.75494261952504
587,1339.5440883735077
588,49.87304853260999
589,60.0
590,0.03163739765625
120,5074358.718144628
2,3, 1, 3, 0,15, 0.00,60.00,Tuesday
7,1.4
314,20.08300468136767
315,0.0
379,0.0
393,0.0
394,0.0
396,0.0
397,876.4740073406762
448,0.033043504218750009
449,59.993520533748739
450,49.81570455619358
587,1399.9557223219551
588,49.86670223935026
589,60.0
590,0.033043504218750009
120,5284640.600359038
2,3, 1, 3, 0,16, 0.00,60.00,Tuesday
7,1.0
314,20.08531849560195
315,0.0
379,0.0
393,0.0
394,0.0
396,0.0
397,896.7204857392923
448,0.033980908593750008
449,59.99566312066178
450,49.86396341300879
587,1437.770668396959
588,49.88008287115646
589,60.0
590,0.033980908593750008
120,5384774.406229053
2,3, 1, 3, 0,17, 0.00,60.00,Tuesday
7,1.0
314,20.08228053219664
315,0.0
379,0.0
393,0.0
394,0.0
396,0.0
397,881.9705818458345
448,0.033355972343750008
449,59.99710605125235
450,49.83975909507539
587,1409.6398212673578
588,49.89220031341644
589,60.0
590,0.033355972343750008
120,5305103.356562488
2,3, 1, 3, 0,18, 0.00,60.00,Tuesday
7,1.0
314,20.226810373542567
315,0.0
379,0.0
393,0.0
394,0.0
396,0.0
397,804.8403727674089
448,0.029996940000000004
449,59.998023336296729
450,49.689367545088007
587,1270.1923333206303
588,49.872202248156259
589,60.00000000000001
590,0.029996940000000004
120,4932692.399954269
2,3, 1, 3, 0,19, 0.00,60.00,Tuesday
7,1.0
314,20.735819346295189
315,0.0
379,0.0
393,0.0
394,0.0
396,0.0
397,487.6931338744107
448,0.017998164000000005
449,59.998523843814378
450,53.830561357482149
587,764.1211453355727
588,49.8455235977447
589,55.93820270416831
590,0.017998164000000005
120,3103636.123208062
2,3, 1, 3, 0,20, 0.00,60.00,Tuesday
7,1.0
314,20.364474730195349
315,0.0
379,0.0
393,0.0
394,0.0
396,0.0
397,379.3171661610969
448,0.014998470000000002
449,59.998761443654149
450,54.802682857804168
587,638.063592755301
588,49.82834916248437
589,54.915920144750909
590,0.014998470000000002
120,2585028.9339190835
2,3, 1, 3, 0,21, 0.00,60.00,Tuesday
7,1.0
314,19.485437770581187
315,0.0
379,0.0
393,0.0
394,0.0
396,0.0
397,0.0
448,0.0
449,59.998894811128078
450,59.998894811128078
587,0.0
588,49.81150260262229
589,49.81150260262229
590,0.0
120,259200.0
2,3, 1, 3, 0,22, 0.00,60.00,Tuesday
7,1.0
314,19.2298198085277
315,0.0
379,0.0
393,0.0
394,0.0
396,0.0
397,0.0
448,0.0
449,59.998894811128078
450,59.998894811128078
587,0.0
588,49.81150260262229
589,49.81150260262229
590,0.0
120,324000.0
2,3, 1, 3, 0,23, 0.00,60.00,Tuesday
7,1.4
314,18.74605958731018
315,0.0
379,0.0
393,0.0
394,0.0
396,0.0
397,0.0
448,0.0
449,59.998894811128078
450,59.998894811128078
587,0.0
588,49.81150260262229
589,49.81150260262229
590,0.0
120,216000.0
2,3, 1, 3, 0,24, 0.00,60.00,Tuesday
7,1.7
314,18.475869232250937
315,0.0
379,0.0
393,0.0
394,0.0
396,0.0
397,0.0
448,0.0
449,59.998894811128078
450,59.998894811128078
587,0.0
588,49.81150260262229
589,49.81150260262229
590,0.0
120,57600.0
2,4, 1, 4, 0, 1, 0.00,60.00,Wednesday
7,2.1
314,17.97111195222143
315,0.0
379,0.0
393,0.0
394,0.0
396,0.0
397,0.0
448,0.0
449,59.998894811128078
450,59.998894811128078
587,0.0
588,49.81150260262229
589,49.81150260262229
590,0.0
120,43200.0
2,4, 1, 4, 0, 2, 0.00,60.00,Wednesday
7,1.4
314,17.78420088967305
315,0.0
379,0.0
393,0.0
394,0.0
396,0.0
397,0.0
448,0.0
449,59.998894811128078
450,59.998894811128078
587,0.0
588,49.81150260262229
589,49.81150260262229
590,0.0
120,43200.0
2,4, 1, 4, 0, 3, 0.00,60.00,Wednesday
7,0.8
314,17.69028341037601
315,0.0
379,0.0
393,0.0
394,0.0
396,0.0
397,0.0
448,0.0
449,59.998894811128078
450,59.998894811128078
587,0.0
588,49.81150260262229
589,49.81150260262229
590,0.0
120,43200.0
2,4, 1, 4, 0, 4, 0.00,60.00,Wednesday
7,0.1
314,17.579399858212868
315,0.0
379,0.0
393,0.0
394,0.0
396,0.0
397,0.0
448,0.0
449,59.998894811128078
450,59.998894811128078
587,0.0
588,49.81150260262229
589,49.81150260262229
590,0.0
120,43200.0
2,4, 1, 4, 0, 5, 0.00,60.00,Wednesday
7,-0.3
314,17.46176355842027
315,0.0
379,0.0
393,0.0
394,0.0
396,0.0
397,0.0
448,0.0
449,59.998894811128078
450,59.998894811128078
587,0.0
588,49.81150260262229
589,49.81150260262229
590,0.0
120,43200.0
2,4, 1, 4, 0, 6, 0.00,60.00,Wednesday
7,-0.7
314,20.251037545560206
315,0.0
379,0.0
393,0.0
394,0.0
396,0.0
397,672.8144406722311
448,0.022997654000000007
449,59.96862342882251
450,52.6839860715362
587,968.1411323290105
588,49.79246369370256
589,56.87402649528798
590,0.022997654000000007
120,3528508.0763844379
2,4, 1, 4, 0, 7, 0.00,60.00,Wednesday
7,-1.1
314,20.803509988093528
315,0.0
379,0.0
393,0.0
394,0.0
396,0.0
397,637.650409307305
448,0.022497705000000004
449,59.97482946874521
450,52.2382100140905
587,963.0214157829954
588,49.76222818833051
589,57.44085871659773
590,0.022497705000000004
120,3668477.0968187835
2,4, 1, 4, 0, 8, 0.00,60.00,Wednesday
7,-1.4
314,21.573057925710807
315,0.0
379,0.0
393,0.0
394,0.0
396,0.0
397,871.3291765925742
448,0.029996940000000004
449,59.980974190406829
450,49.76205964747
587,1283.1417436005108
588,49.768900390618487
589,60.0
590,0.029996940000000004
120,4972110.276961839
2,4, 1, 4, 0, 9, 0.00,60.00,Wednesday
7,-1.8
314,19.976504335266474
315,0.0
379,0.0
393,0.0
394,0.0
396,0.0
397,1018.441877361057
448,0.04572971009375
449,59.92034248939516
450,50.34438508089604
587,1856.083683661679
588,49.91740644604076
589,59.66596588168827
590,0.04572971009375
120,6984301.261182045
2,4, 1, 4, 0,10, 0.00,60.00,Wednesday
7,-2.1
314,20.114573071137536
315,0.0
379,0.0
393,0.0
394,0.0
396,0.0
397,1178.1925098965971
448,0.047182686875
449,59.871679228309528
450,50.303458562545
587,1945.0747896424034
588,50.14021050084539
589,60.0
590,0.047182686875
120,7232669.242712652
2,4, 1, 4, 0,11, 0.00,60.00,Wednesday
7,-2.4
314,20.09996586167105
315,0.0
379,0.0
393,0.0
394,0.0
396,0.0
397,975.2893742694572
448,0.037261823906250008
449,59.92306074319603
450,49.92419278289725
587,1533.2746802078666
588,50.15832296311915
589,60.0
590,0.037261823906250008
120,5714188.84874832
2,4, 1, 4, 0,12, 0.00,60.00,Wednesday
7,-2.6
314,20.09612295821497
315,0.0
379,0.0
393,0.0
394,0.0
396,0.0
397,972.5454878584067
448,0.03741805796875001
449,59.95085651759078
450,49.987043162247498
587,1547.3198632768622
588,50.10959362504634
589,60.0
590,0.03741805796875001
120,5807951.507796704
2,4, 1, 4, 0,13, 0.00,60.00,Wednesday
7,-2.9
314,20.093139291354377
315,0.0
379,0.0
393,0.0
394,0.0
396,0.0
397,971.977746489548
448,0.03749617500000001
449,59.96864384197729
450,50.02270672674748
587,1552.7052409039795
588,50.09583419834045
589,59.99999999999999
590,0.03749617500000001
120,5884938.867254326
2,4, 1, 4, 0,14, 0.00,60.00,Wednesday
7,-3.5
314,20.100771189076345
315,0.0
379,0.0
393,0.0
394,0.0
396,0.0
397,1044.6419001688428
448,0.04108955843750001
449,59.980396658114
450,50.215403657885207
587,1695.0411952022562
588,50.1335011665394
589,60.000000000000017
590,0.04108955843750001
120,6354148.302728122
2,4, 1, 4, 0,15, 0.00,60.00,Wednesday
7,-4.2
314,20.10108542006756
315,0.0
379,0.0
393,0.0
394,0.0
396,0.0
397,1088.2626655065308
448,0.04335495234375
449,59.98817480946743
450,50.3392674670329
587,1772.9674196651774
588,50.21923633089659
589,60.0
590,0.04335495234375
120,6627482.710794639
2,4, 1, 4, 0,16, 0.00,60.00,Wednesday
7,-4.8
314,20.101333631166907
315,0.0
379,0.0
393,0.0
394,0.0
396,0.0
397,1130.8251689031697
448,0.04562034625
449,59.99306137544584
450,50.45834613319014
587,1845.799873613405
588,50.323184979234039
589,60.0
590,0.04562034625
120,6853679.545008258
2,4, 1, 4, 0,17, 0.00,60.00,Wednesday
7,-5.1
314,20.10499760105559
315,0.0
379,0.0
393,0.0
394,0.0
396,0.0
397,1135.263728158583
448,0.045932814375
449,59.99599101337329
450,50.478556957285
587,1841.285440417648
588,50.41260209154343
589,60.00000000000001
590,0.045932814375
120,6859027.585503533
2,4, 1, 4, 0,18, 0.00,60.00,Wednesday
7,-5.5
314,20.088247811403229
315,0.0
379,0.0
393,0.0
394,0.0
396,0.0
397,1023.9310010072977
448,0.040308388125000007
449,59.997618287439397
450,50.204295751508
587,1616.4174067842657
588,50.40906553860305
589,59.99999999999999
590,0.040308388125000007
120,6179102.664423357
2,4, 1, 4, 0,19, 0.00,60.00,Wednesday
7,-5.8
314,20.65339505115513
315,0.0
379,0.0
393,0.0
394,0.0
396,0.0
397,485.64555250386089
448,0.017998164000000005
449,59.99835741306152
450,53.831658593153978
587,728.6931895911448
588,50.30969561263815
589,56.11967289469559
590,0.017998164000000005
120,2976095.482528121
2,4, 1, 4, 0,20, 0.00,60.00,Wednesday
7,-5.9
314,20.58629102988239
315,0.0
379,0.0
393,0.0
394,0.0
396,0.0
397,530.7974575539077
448,0.019997960000000003
449,59.99867432628245
450,53.1459014455461
587,818.1591562328019
588,50.216349171942109
589,56.73971516003975
590,0.019997960000000003
120,3233372.962438087
2,4, 1, 4, 0,21, 0.00,60.00,Wednesday
7,-6.1
314,18.98104749759351
315,0.0
379,0.0
393,0.0
394,0.0
396,0.0
397,0.0
448,0.0
449,59.99882611246033
450,59.99882611246033
587,0.0
588,50.1601800947036
589,50.1601800947036
590,0.0
120,259200.0
2,4, 1, 4, 0,22, 0.00,60.00,Wednesday
7,-6.2
314,18.61436629072294
315,0.0
379,0.0
393,0.0
394,0.0
396,0.0
397,0.0
448,0.0
449,59.99882611246032
450,59.99882611246032
587,0.0
588,50.16018009470359
589,50.16018009470359
590,0.0
120,324000.0
2,4, 1, 4, 0,23, 0.00,60.00,Wednesday
7,-6.2
314,18.199142799012028
315,0.0
379,0.0
393,0.0
394,0.0
396,0.0
397,0.0
448,0.0
449,59.99882611246033
450,59.99882611246033
587,0.0
588,50.1601800947036
589,50.1601800947036
590,0.0
120,216000.0
2,4, 1, 4, 0,24, 0.00,60.00,Wednesday
7,-6.3
314,17.75928677388606
315,0.0
379,0.0
393,0.0
394,0.0
396,0.0
397,0.0
448,0.0
449,59.99882611246033
450,59.99882611246033
587,0.0
588,50.1601800947036
589,50.1601800947036
590,0.0
120,57600.0
2,5, 1, 5, 0, 1, 0.00,60.00,Thursday
7,-6.3
314,17.28612852049508
315,0.0
379,0.0
393,0.0
394,0.0
396,0.0
397,0.0
448,0.0
449,59.99882611246033
450,59.99882611246033
587,0.0
588,50.1601800947036
589,50.1601800947036
590,0.0
120,43200.0
2,5, 1, 5, 0, 2, 0.00,60.00,Thursday
7,-6.4
314,17.129475074698445
315,0.0
379,0.0
393,0.0
394,0.0
396,0.0
397,0.0
448,0.0
449,59.99882611246033
450,59.99882611246033
587,0.0
588,50.1601800947036
589,50.1601800947036
590,0.0
120,43200.0
2,5, 1, 5, 0, 3, 0.00,60.00,Thursday
7,-6.5
314,17.015864515607104
315,0.0
379,0.0
393,0.0
394,0.0
396,0.0
397,0.0
448,0.0
449,59.99882611246033
450,59.99882611246033
587,0.0
588,50.1601800947036
589,50.1601800947036
590,0.0
120,43200.0
2,5, 1, 5, 0, 4, 0.00,60.00,Thursday
7,-6.6
314,16.890872058975199
315,0.0
379,0.0
393,0.0
394,0.0
396,0.0
397,0.0
448,0.0
449,59.99882611246033
450,59.99882611246033
587,0.0
588,50.1601800947036
589,50.1601800947036
590,0.0
120,43200.0
2,5, 1, 5, 0, 5, 0.00,60.00,Thursday
7,-6.4
314,16.779860537386527
315,0.0
379,0.0
393,0.0
394,0.0
396,0.0
397,0.0
448,0.0
449,59.99882611246033
450,59.99882611246033
587,0.0
588,50.1601800947036
589,50.1601800947036
590,0.0
120,43200.0
2,5, 1, 5, 0, 6, 0.00,60.00,Thursday
7,-6.3
314,20.09499649263129
315,0.0
379,0.0
393,0.0
394,0.0
396,0.0
397,864.8770036896661
448,0.029033496614583339
449,59.97711179365268
450,51.397917538089419
587,1190.9763683061697
588,50.096866148483787
589,58.297452571105299
590,0.029033496614583339
120,4330714.925902211
2,5, 1, 5, 0, 7, 0.00,60.00,Thursday
7,-6.1
314,20.49596485724185
315,0.0
379,0.0
393,0.0
394,0.0
396,0.0
397,846.2389668942667
448,0.029996940000000004
449,59.981652174501267