Program Version,EnergyPlus, Version 8.9.0-40101eaafd, YMD=2018.12.16 20:33
1,5,Environment Title[],Latitude[deg],Longitude[deg],Time Zone[],Elevation[m]
2,8,Day of Simulation[],Month[],Day of Month[],DST Indicator[1=yes 0=no],Hour[],StartMinute[],EndMinute[],DayType
3,5,Cumulative Day of Simulation[],Month[],Day of Month[],DST Indicator[1=yes 0=no],DayType  ! When Daily Report Variables Requested
4,2,Cumulative Days of Simulation[],Month[]  ! When Monthly Report Variables Requested
5,1,Cumulative Days of Simulation[] ! When Run Period Report Variables Requested
6,1,Calendar Year of Simulation[] ! When Annual Report Variables Requested
7,1,Environment,Site Outdoor Air Drybulb Temperature [C] !Hourly
94,1,ZONE ONE,Zone Air Temperature [C] !Hourly
95,1,RADIATOR,Baseboard Total Heating Rate [W] !Hourly
158,1,RADIATOR,Baseboard Hot Water Mass Flow Rate [kg/s] !Hourly
159,1,RADIATOR,Baseboard Water Inlet Temperature [C] !Hourly
160,1,RADIATOR,Baseboard Water Outlet Temperature [C] !Hourly
198,1,DISTRICT HEATING 1,District Heating Rate [W] !Hourly
199,1,DISTRICT HEATING 1,District Heating Inlet Temperature [C] !Hourly
200,1,DISTRICT HEATING 1,District Heating Outlet Temperature [C] !Hourly
201,1,DISTRICT HEATING 1,District Heating Mass Flow Rate [kg/s] !Hourly
163,1,DistrictHeating:Facility [J] !Hourly
End of Data Dictionary
1,ANNUAL SIM 1,  59.65,  17.95,   1.00,  61.00
2,1, 1,28, 0, 1, 0.00,60.00,Saturday
7,-5.0
94,20.51752483555107
95,1279.8530591910828
158,0.045698463281250007
159,60.0
160,50.56347966636006
198,1870.4292986305447
199,50.21071938748888
200,60.0
201,0.045698463281250007
163,6733545.4750699619
2,1, 1,28, 0, 2, 0.00,60.00,Saturday
7,-4.6
94,20.41468879206315
95,1105.342499656279
158,0.038374991601562508
159,60.0
160,50.22933603860521
198,1554.617488093518
199,50.31092831266993
200,60.0
201,0.038374991601562508
163,5596622.957136665
2,1, 1,28, 0, 3, 0.00,60.00,Saturday
7,-4.3
94,20.473025330080348
95,1140.9133862673586
158,0.039253808203125
159,60.0
160,50.24614314094852
198,1590.651122517546
199,50.3082955162174
200,59.99999999999999
201,0.039253808203125
163,5726344.041063165
2,1, 1,28, 0, 4, 0.00,60.00,Saturday
7,-3.9
94,20.45713676144865
95,1107.4694096162743
158,0.037886760156250007
159,60.0
160,50.194984140533879
198,1536.6572000055958
199,50.2994375093066
200,60.0
201,0.037886760156250007
163,5531965.920020144
2,1, 1,28, 0, 5, 0.00,60.00,Saturday
7,-3.5
94,20.445051063902633
95,1096.331865762324
158,0.037496175
159,60.0
160,50.17242058383276
198,1523.7317541026746
199,50.2808179811527
200,60.0
201,0.037496175
163,5485434.314769628
2,1, 1,28, 0, 6, 0.00,60.00,Saturday
7,-3.1
94,20.44695843097453
95,1078.7773563285032
158,0.0367150046875
159,60.0
160,50.13232599679159
198,1495.5362736959637
199,50.25767778083444
200,59.99999999999999
201,0.0367150046875
163,5383930.585305469
2,1, 1,28, 0, 7, 0.00,60.00,Saturday
7,-2.7
94,20.440405814098435
95,1067.0298969085168
158,0.036226773242187499
159,60.0
160,50.10974184113267
198,1479.5137191267024
199,50.23213763928142
200,60.0
201,0.036226773242187499
163,5326249.388856129
2,1, 1,28, 0, 8, 0.00,60.00,Saturday
7,-2.4
94,20.433442869922147
95,1054.584792512016
158,0.035738541796875
159,60.0
160,50.08514003784172
198,1463.2470361282456
199,50.20753485868072
200,60.0
201,0.035738541796875
163,5267689.330061684
2,1, 1,28, 0, 9, 0.00,60.00,Saturday
7,-2.1
94,20.427858877430127
95,1037.6624906873449
158,0.0350550177734375
159,60.0
160,50.05142192719491
198,1439.0602410558827
199,50.181592107267928
200,60.0
201,0.0350550177734375
163,5180616.867801177
2,1, 1,28, 0,10, 0.00,60.00,Saturday
7,-1.8
94,20.47144550422162
95,1146.261658049863
158,0.039644393359375
159,60.0
160,50.26823066189302
198,1623.9900530376408
199,50.20255114859097
200,59.99999999999999
201,0.039644393359375
163,5846364.1909355069
2,1, 1,28, 0,11, 0.00,60.00,Saturday
7,-1.5
94,20.351078848193798
95,936.0101581590084
158,0.031539751367187496
159,60.0
160,49.90073760253263
198,1294.0600048729875
199,50.186854951254357
200,60.0
201,0.031539751367187496
163,4658616.017542755
2,1, 1,28, 0,12, 0.00,60.00,Saturday
7,-1.1
94,20.385927444330006
95,928.3067133881
158,0.03080740419921875
159,60.0
160,49.837519038612217
198,1274.2182625255361
199,50.1075450164318
200,60.0
201,0.03080740419921875
163,4587185.74509193
2,1, 1,28, 0,13, 0.00,60.00,Saturday
7,-0.8
94,20.36739760751537
95,886.8794332856621
158,0.029293886718750003
159,60.0
160,49.78075607326217
198,1220.299417422039
199,50.036596517856477
200,60.0
201,0.029293886718750003
163,4393077.90271934
2,1, 1,28, 0,14, 0.00,60.00,Saturday
7,-0.8
94,20.373767182955996
95,897.0027546584295
158,0.029684471875
159,60.0
160,49.79275409435636
198,1243.3722495207594
199,49.98174561302888
200,60.0
201,0.029684471875
163,4476140.098274734
2,1, 1,28, 0,15, 0.00,60.00,Saturday
7,-0.8
94,20.38049885846918
95,916.4376205825075
158,0.03041681904296875
159,60.0
160,49.82619628873056
198,1278.1132074163454
199,49.949760649881557
200,60.0
201,0.03041681904296875
163,4601207.546698843
2,1, 1,28, 0,16, 0.00,60.00,Saturday
7,-0.8
94,20.389059778515987
95,943.8140507314163
158,0.031442105078125
159,60.0
160,49.87315298633577
198,1322.5346354867238
199,49.93957037149265
200,60.0
201,0.031442105078125
163,4761124.687752206
2,1, 1,28, 0,17, 0.00,60.00,Saturday
7,-0.8
94,20.399891066778264
95,962.2134509420063
158,0.0321256291015625
159,60.0
160,49.90591475566225
198,1350.5816915704781
199,49.94481197305334
200,60.0
201,0.0321256291015625
163,4862094.089653721
2,1, 1,28, 0,18, 0.00,60.00,Saturday
7,-0.8
94,20.401713620060919
95,967.4750358184143
158,0.03232092167968749
159,60.0
160,49.91746682784406
198,1357.3787118601122
199,49.95527483380591
200,60.0
201,0.03232092167968749
163,4886563.362696404
2,1, 1,28, 0,19, 0.00,60.00,Saturday
7,-0.8
94,20.447117427306876
95,1099.118339266427
158,0.037691467578125
159,60.0
160,50.16796390070644
198,1573.7259521398637
199,50.01368357450828
200,60.00000000000001
201,0.037691467578125
163,5665413.427703509
2,1, 1,28, 0,20, 0.00,60.00,Saturday
7,-1.0
94,20.361081949201876
95,963.0009067044728
158,0.032613860546875
159,60.0
160,49.94271043141512
198,1356.6738306649727
199,50.05073582797611
200,60.0
201,0.032613860546875
163,4884025.790393902
2,1, 1,28, 0,21, 0.00,60.00,Saturday
7,-1.2
94,20.422601511512917
95,1015.5165670707185
158,0.034176201171875
159,60.0
160,49.992383099225509
198,1422.3984416362675
199,50.04559242679512
200,60.0
201,0.034176201171875
163,5120634.389890563
2,1, 1,28, 0,22, 0.00,60.00,Saturday
7,-1.4
94,20.421170060859578
95,1019.696637571787
158,0.034371493749999999
159,60.0
160,50.01694266104249
198,1429.3012983762567
199,50.05412572041651
200,60.00000000000001
201,0.034371493749999999
163,5145484.674154524
2,1, 1,28, 0,23, 0.00,60.00,Saturday
7,-1.5
94,20.427534299119935
95,1032.6379891301235
158,0.034859725195312499
159,60.0
160,50.039239220075319
198,1447.6159431629872
199,50.067778079013468
200,60.00000000000001
201,0.034859725195312499
163,5211417.395386754
2,1, 1,28, 0,24, 0.00,60.00,Saturday
7,-1.7
94,20.42715564069029
95,1032.8672513934525
158,0.034859725195312499
159,60.0
160,50.0408409009478
198,1445.7401210255302
199,50.08066048699621
200,60.0
201,0.034859725195312499
163,5204664.435691909
2,2, 1,29, 0, 1, 0.00,60.00,Sunday
7,-1.8
94,20.425645293013106
95,1022.941146352229
158,0.0344691400390625
159,60.0
160,50.02261236371015
198,1428.7643920671796
199,50.08605679657661
200,60.0
201,0.0344691400390625
163,5143551.811441847
2,2, 1,29, 0, 2, 0.00,60.00,Sunday
7,-2.1
94,20.42313206014917
95,1023.2208258894826
158,0.0344691400390625
159,60.0
160,50.022231564086457
198,1428.6806714226213
199,50.086638270786689
200,59.99999999999999
201,0.0344691400390625
163,5143250.417121436
2,2, 1,29, 0, 3, 0.00,60.00,Sunday
7,-2.5
94,20.429294975844468
95,1035.088711353912
158,0.034957371484375
159,60.0
160,50.04427883279688
198,1448.279319507516
199,50.09100496412236
200,60.00000000000001
201,0.034957371484375
163,5213805.550227057
2,2, 1,29, 0, 4, 0.00,60.00,Sunday
7,-2.8
94,20.432840920784299
95,1047.3255692522173
158,0.0354456029296875
159,60.0
160,50.06862441483661
198,1466.887580692032
199,50.10194049255761
200,59.99999999999999
201,0.0354456029296875
163,5280795.290491316
2,2, 1,29, 0, 5, 0.00,60.00,Sunday
7,-2.8
94,20.43666085769634
95,1052.126270069166
158,0.035640895507812509
159,59.99999999999999
160,50.07866313178547
198,1473.0344971277034
199,50.114938694678439
200,60.0
201,0.035640895507812509
163,5302924.189659732
2,2, 1,29, 0, 6, 0.00,60.00,Sunday
7,-2.9
94,20.43541906048691
95,1054.589665746076
158,0.035738541796875
159,59.99999999999999
160,50.084201435738858
198,1475.402922192332
199,50.12610729489154
200,60.0
201,0.035738541796875
163,5311450.5198923959
2,2, 1,29, 0, 7, 0.00,60.00,Sunday
7,-2.9
94,20.440714228611968
95,1057.0597997809914
158,0.0358361880859375
159,59.99999999999999
160,50.08847509455088
198,1478.0882329536132
199,50.1350980842614
200,60.0
201,0.0358361880859375
163,5321117.638633007
2,2, 1,29, 0, 8, 0.00,60.00,Sunday
7,-3.0
94,20.43461952582069
95,1054.5079219193021
158,0.035738541796875
159,59.99999999999999
160,50.08521733607375
198,1473.1745854104024
199,50.14103415336809
200,60.00000000000001
201,0.035738541796875
163,5303428.507477448
2,2, 1,29, 0, 9, 0.00,60.00,Sunday
7,-3.0
94,20.434839079159795
95,1049.7060888876895
158,0.03554324921875
159,60.0
160,50.0745327417203
198,1464.9259422607072
199,50.142371199471337
200,59.99999999999999
201,0.03554324921875
163,5273733.392138546
2,2, 1,29, 0,10, 0.00,60.00,Sunday
7,-3.1
94,20.424515121277609
95,1024.389901075307
158,0.03451796318359375
159,60.0
160,50.02681148600706
198,1424.0381418867332
199,50.132871767694947
200,60.0
201,0.03451796318359375
163,5126537.310792239
2,2, 1,29, 0,11, 0.00,60.00,Sunday
7,-3.0
94,20.41551895848712
95,998.8161311129184
158,0.0334926771484375
159,60.0
160,49.97696827802041
198,1384.8804715909846
199,50.11042399371182
200,60.0
201,0.0334926771484375
163,4985569.697727544
2,2, 1,29, 0,12, 0.00,60.00,Sunday
7,-2.8
94,20.405114739219383
95,970.5310130384256
158,0.03241856796874999
159,60.0
160,49.92584956428978
198,1344.6697374661571
199,50.079390889438027
200,60.0
201,0.03241856796874999
163,4840811.054878166
2,2, 1,29, 0,13, 0.00,60.00,Sunday
7,-2.7
94,20.401088170822104
95,957.4091374936511
158,0.03193033652343749
159,60.0
160,49.901241078344927
198,1328.7430443026235
199,50.04696825317948
200,60.0
201,0.03193033652343749
163,4783474.959489444
2,2, 1,29, 0,14, 0.00,60.00,Sunday
7,-2.5
94,20.397828507310256
95,959.6890792881416
158,0.032027982812499997
159,60.0
160,49.90459377028233
198,1336.1567606025003
199,50.02192536435139
200,60.0
201,0.032027982812499997
163,4810164.338169001
2,2, 1,29, 0,15, 0.00,60.00,Sunday
7,-2.4
94,20.41220499424755
95,986.913298559191
158,0.0331020919921875
159,60.0
160,49.95235907304379
198,1382.135301433319
199,50.01347506238177
200,60.0
201,0.0331020919921875
163,4975687.085159948
2,2, 1,29, 0,16, 0.00,60.00,Sunday
7,-2.2
94,20.416212415794815
95,1009.2852089488392
158,0.03398090859375
159,60.0
160,49.99628066298094
198,1417.5148972870866
199,50.022734420596318
200,60.0
201,0.03398090859375
163,5103053.630233511
2,2, 1,29, 0,17, 0.00,60.00,Sunday
7,-1.7
94,20.4172484894534
95,1009.8422469859288
158,0.03398090859375
159,60.0
160,49.997293326617029
198,1415.6396530172212
199,50.035946036658589
200,60.0
201,0.03398090859375
163,5096302.750861997
2,2, 1,29, 0,18, 0.00,60.00,Sunday
7,-1.2
94,20.412500873415135
95,995.3578357330679
158,0.033395030859375
159,60.0
160,49.970658958899537
198,1390.6466882364875
199,50.04014258056992
200,60.00000000000001
201,0.033395030859375
163,5006328.077651355
2,2, 1,29, 0,19, 0.00,60.00,Sunday
7,-0.7
94,20.405047094254859
95,975.2529250196588
158,0.032613860546875
159,60.0
160,49.9339083243698
198,1359.1641947259138
199,50.03245513329116
200,60.0
201,0.032613860546875
163,4892991.10101329
2,2, 1,29, 0,20, 0.00,60.00,Sunday
7,-0.7
94,20.40529007210333
95,970.2955202303164
158,0.03241856796874999
159,60.0
160,49.92318450129432
198,1352.7267479467876
199,50.019891638602647
200,59.99999999999999
201,0.03241856796874999
163,4869816.292608435
2,2, 1,29, 0,21, 0.00,60.00,Sunday
7,-0.8
94,20.403526536706648
95,970.0278279257185
158,0.03241856796874999
159,60.0
160,49.923246338543
198,1354.0933353894163
199,50.00979962356723
200,60.0
201,0.03241856796874999
163,4874736.0074018989
2,2, 1,29, 0,22, 0.00,60.00,Sunday
7,-0.8
94,20.404720108376777
95,971.5573569238128
158,0.032467391113281247
159,60.0
160,49.92500241032324
198,1357.018513159744
199,50.00326737399425
200,59.99999999999999
201,0.032467391113281247
163,4885266.647375079
2,2, 1,29, 0,23, 0.00,60.00,Sunday
7,-0.8
94,20.403794375829326
95,969.8453718367158
158,0.03241856796874999
159,60.0
160,49.923101284214599
198,1355.58563699073
199,49.998779792966
200,60.0
201,0.03241856796874999
163,4880108.293166628
2,2, 1,29, 0,24, 0.00,60.00,Sunday
7,-0.9
94,20.404698486252735
95,977.7411327721113
158,0.0327115068359375
159,60.0
160,49.936118111593639
198,1367.983283539353
199,49.997694370405849
200,60.0
201,0.0327115068359375
163,4924739.82074167
2,3, 1,30, 0, 1, 0.00,60.00,Monday
7,-0.9
94,20.40762094463361
95,981.5306217355585
158,0.03285797626953124
159,60.0
160,49.94299455366803
198,1373.7755765498823
199,50.000119574106047
200,60.0
201,0.03285797626953124
163,4945592.075579576
2,3, 1,30, 0, 2, 0.00,60.00,Monday
7,-1.2
94,20.415145486724759
95,995.604915265621
158,0.033395030859375
159,60.0
160,49.96821956480204
198,1395.2331567281344
199,50.00726270855403
200,60.00000000000001
201,0.033395030859375
163,5022839.364221284
2,3, 1,30, 0, 3, 0.00,60.00,Monday
7,-1.5
94,20.417468818059107
95,1000.2725997423888
158,0.0335903234375
159,60.0
160,49.97907005309142
198,1401.9008698118603
199,50.017893282065987
200,59.99999999999999
201,0.0335903234375
163,5046843.131322697
2,3, 1,30, 0, 4, 0.00,60.00,Monday
7,-1.8
94,20.422570993610564
95,1010.4236155887764
158,0.03398090859375
159,59.99999999999999
160,49.997610815772798
198,1416.4762281271715
199,50.03005213707847
200,60.00000000000001
201,0.03398090859375
163,5099314.421257817
2,3, 1,30, 0, 5, 0.00,60.00,Monday
7,-1.9
94,20.422232703575177
95,1012.7933798382182
158,0.0340785548828125
159,59.99999999999999
160,50.003401050483507
198,1418.8276883467893
199,50.04212736500247
200,59.99999999999999
201,0.0340785548828125
163,5107779.678048441
2,3, 1,30, 0, 6, 0.00,60.00,Monday
7,-2.1
94,20.422834391626325
95,1019.7375757750499
158,0.034371493749999999
159,59.99999999999999
160,50.01684963242213
198,1429.3873417909037
199,50.05352641213617
200,60.00000000000001
201,0.034371493749999999
163,5145794.430447253
2,3, 1,30, 0, 7, 0.00,60.00,Monday
7,-2.2
94,20.42818036518904
95,1025.3714546042227
158,0.034566786328124998
159,59.99999999999999
160,50.02604931212014
198,1435.8647726929187
199,50.06491308060241
200,60.0
201,0.034566786328124998
163,5169113.181694508
2,3, 1,30, 0, 8, 0.00,60.00,Monday
7,-2.2
94,20.42395378379881
95,1025.3793054636412
158,0.034566786328124998
159,59.99999999999999
160,50.02739656566609
198,1434.530228484754
199,50.07415588368989
200,60.0
201,0.034566786328124998
163,5164308.822545114
2,3, 1,30, 0, 9, 0.00,60.00,Monday
7,-2.1
94,20.42512594302889
95,1021.804580439658
158,0.03442031689453125
159,59.99999999999999
160,50.01954379635917
198,1427.7490178315895
199,50.079043304717199
200,60.0
201,0.03442031689453125
163,5139896.464193722
2,3, 1,30, 0,10, 0.00,60.00,Monday
7,-2.1
94,20.41588211802162
95,999.5359766904845
158,0.03354150029296875
159,59.99999999999999
160,49.979359100718
198,1392.0157514526443
199,50.07390501162327
200,60.0
201,0.03354150029296875
163,5011256.70522952
2,3, 1,30, 0,11, 0.00,60.00,Monday
7,-1.8
94,20.40327235339695
95,963.0741477540704
158,0.0321256291015625
159,60.0
160,49.91274991231083
198,1336.053492642718
199,50.05305231459181
200,60.0
201,0.0321256291015625
163,4809792.573513785
2,3, 1,30, 0,12, 0.00,60.00,Monday
7,-1.4
94,20.386135897776545
95,924.2421037596893
158,0.030660934765625
159,60.0
160,49.84446086973003
198,1279.584324623575
199,50.018344190750919
200,60.0
201,0.030660934765625
163,4606503.56864487
2,3, 1,30, 0,13, 0.00,60.00,Monday
7,-1.1
94,20.379371860386457
95,903.0431698713938
158,0.029879764453125
159,60.0
160,49.806014338990369
198,1251.8791846421648
199,49.97912799794745
200,60.0
201,0.029879764453125
163,4506765.064711793
2,3, 1,30, 0,14, 0.00,60.00,Monday
7,-0.9
94,20.37482780188977
95,899.8432464331858
158,0.0297821181640625
159,60.0
160,49.80005183703237
198,1251.942274624152
199,49.945749956859128
200,59.99999999999999
201,0.0297821181640625
163,4506992.188646948
2,3, 1,30, 0,15, 0.00,60.00,Monday
7,-0.7
94,20.380202133331758
95,917.471753742027
158,0.0304656421875
159,60.0
160,49.82860421755538
198,1283.1862559581382
199,49.92602818614224
200,60.00000000000001
201,0.0304656421875
163,4619470.521449298
2,3, 1,30, 0,16, 0.00,60.00,Monday
7,-0.5
94,20.43988935494696
95,1069.1188694689265
158,0.036519712109375
159,60.0
160,50.10689707097517
198,1531.7056993619906
199,49.968440089972109
200,60.0
201,0.036519712109375
163,5514140.517703166
2,3, 1,30, 0,17, 0.00,60.00,Monday
7,-0.3
94,20.351462044033636
95,928.2673289427005
158,0.031197989355468748
159,60.0
160,49.877508966403748
198,1304.5519303850122
199,49.99874213856296
200,60.00000000000001
201,0.031197989355468748
163,4696386.9493860439
2,3, 1,30, 0,18, 0.00,60.00,Monday
7,-0.1
94,20.39837757703774
95,957.6012601977437
158,0.03193033652343749
159,60.0
160,49.88755684537874
198,1337.297631818394
199,49.98283635140663
200,59.99999999999999
201,0.03193033652343749
163,4814271.474546218
2,3, 1,30, 0,19, 0.00,60.00,Monday
7,0.1
94,20.388731853026976
95,936.6850116956715
158,0.0311491662109375
159,60.0
160,49.864725211054828
198,1306.3012047866853
199,49.96962050094967
200,60.0
201,0.0311491662109375
163,4702684.337232067
2,3, 1,30, 0,20, 0.00,60.00,Monday
7,0.1
94,20.394490115121216
95,942.1441508009024
158,0.0313444587890625
159,60.0
160,49.87091677069739
198,1315.9752040795927
199,49.958291046200319
200,60.0
201,0.0313444587890625
163,4737510.734686534
2,3, 1,30, 0,21, 0.00,60.00,Monday
7,0.1
94,20.38939068704261
95,938.004921550053
158,0.031197989355468748
159,60.0
160,49.86589238114716
198,1310.832611148818
199,49.950568572489519
200,59.99999999999999
201,0.031197989355468748
163,4718997.400135744
2,3, 1,30, 0,22, 0.00,60.00,Monday
7,0.1
94,20.394384327245075
95,940.1813111757293
158,0.0312468125
159,60.0
160,49.86675169653361
198,1313.6535321899019
199,49.94467531831379
200,60.0
201,0.0312468125
163,4729152.715883647
2,3, 1,30, 0,23, 0.00,60.00,Monday
7,0.1
94,20.388441714539846
95,937.9014514770427
158,0.031197989355468748
159,60.0
160,49.865865312546457
198,1312.1319971283876
199,49.94060210024403
200,60.0
201,0.031197989355468748
163,4723675.189662196
2,3, 1,30, 0,24, 0.00,60.00,Monday
7,0.0
94,20.392514506713526
95,943.1027468639882
158,0.03139328193359375
159,60.0
160,49.8730120224389
198,1320.5743649240997
199,49.93885878224034
200,59.99999999999999
201,0.03139328193359375
163,4754067.713726759
2,4, 1,31, 0, 1, 0.00,60.00,Tuesday
7,0.0
94,20.390782645278937
95,941.8110174996798
158,0.0313444587890625
159,60.0
160,49.871884041269627
198,1318.565182840653
199,49.938518381541268
200,59.99999999999999
201,0.0313444587890625
163,4746834.658226351
2,4, 1,31, 0, 2, 0.00,60.00,Tuesday
7,0.0
94,20.3928665818298
95,943.0964409853293
158,0.03139328193359375
159,60.0
160,49.87361049870354
198,1320.6336662150784
199,49.93840676228556
200,60.0
201,0.03139328193359375
163,4754281.198374283
2,4, 1,31, 0, 3, 0.00,60.00,Tuesday
7,-0.1
94,20.394343934735006
95,945.771396432741
158,0.03149092822265624
159,60.0
160,49.87848687067532
198,1324.6107206633542
199,49.939399702831469
200,60.0
201,0.03149092822265624
163,4768598.594388075
2,4, 1,31, 0, 4, 0.00,60.00,Tuesday
7,-0.1
94,20.394687956489038
95,946.878258400085
158,0.031539751367187496
159,60.0
160,49.88103870406738
198,1326.4234385437423
199,49.941227738346388
200,60.0
201,0.031539751367187496
163,4775124.378757472
2,4, 1,31, 0, 5, 0.00,60.00,Tuesday
7,-0.2
94,20.395320202704445
95,949.6781609819258
158,0.031637397656249999
159,60.0
160,49.885480280860488
198,1330.215672082104
199,49.943605288638178
200,60.0
201,0.031637397656249999
163,4788776.419495574
2,4, 1,31, 0, 6, 0.00,60.00,Tuesday
7,-0.2
94,20.396315177849986
95,950.9056313107578
158,0.03168622080078125
159,60.0
160,49.88782109591796
198,1331.913472631942
199,49.946286243828399
200,60.0
201,0.03168622080078125
163,4794888.501474991
2,4, 1,31, 0, 7, 0.00,60.00,Tuesday
7,-0.3
94,20.396986502619673
95,954.5662483700773
158,0.031832690234374998
159,60.0
160,49.89462310512316
198,1337.6267656981013
199,49.94961991291426
200,60.0
201,0.031832690234374998
163,4815456.356513165
2,4, 1,31, 0, 8, 0.00,60.00,Tuesday
7,-0.3
94,20.401221900606865
95,957.0725284789163
158,0.03193033652343749
159,60.0
160,49.89916795447202
198,1341.1876001792803
199,49.95368413887225
200,60.00000000000001
201,0.03193033652343749
163,4828275.360645409
2,4, 1,31, 0, 9, 0.00,60.00,Tuesday
7,-0.4
94,20.395849381253176
95,952.2825830593775
158,0.0317350439453125
159,60.0
160,49.89150867424944
198,1332.6989117634485
199,49.95583845779891
200,60.0
201,0.0317350439453125
163,4797716.082348415
2,4, 1,31, 0,10, 0.00,60.00,Tuesday
7,-0.4
94,20.3900658898033
95,934.3579209094418
158,0.031051519921875
159,60.0
160,49.859759470246057
198,1304.6331543823374
199,49.9509177691884
200,60.0
201,0.031051519921875
163,4696679.355776414
2,4, 1,31, 0,11, 0.00,60.00,Tuesday
7,-0.3
94,20.379604134629728
95,903.322315564297
158,0.029879764453125
159,60.0
160,49.80702565872089
198,1257.4404334128353
199,49.934590627158438
200,60.0
201,0.029879764453125
163,4526785.560286207
2,4, 1,31, 0,12, 0.00,60.00,Tuesday
7,-0.3
94,20.368595218627797
95,877.9691394872202
158,0.02895212470703125
159,60.0
160,49.76455898684253
198,1221.4402165156791
199,49.909481396364927
200,60.0
201,0.02895212470703125
163,4397184.779456445
2,4, 1,31, 0,13, 0.00,60.00,Tuesday
7,-0.2
94,20.361302167967606
95,864.1438830996858
158,0.028463893261718749
159,60.0
160,49.741086239498617
198,1204.0288743532667
199,49.882694376902637
200,60.0
201,0.028463893261718749
163,4334503.94767176
2,4, 1,31, 0,14, 0.00,60.00,Tuesday
7,-0.3
94,20.366610222735749
95,874.4822580468255
158,0.028854478417968754
159,60.0
160,49.755686718555029
198,1222.953170565541
199,49.862770414808299
200,59.99999999999999
201,0.028854478417968754
163,4402631.414035948
2,4, 1,31, 0,15, 0.00,60.00,Tuesday
7,-0.4
94,20.37568900771915
95,901.8107031494433
158,0.029879764453125
159,60.0
160,49.800989723091117
198,1267.0514340169505
199,49.85762029110521
200,60.0
201,0.029879764453125
163,4561385.162461022
2,4, 1,31, 0,16, 0.00,60.00,Tuesday
7,-0.5
94,20.389664684452506
95,935.55228476225
158,0.0311491662109375
159,60.0
160,49.85891850742618
198,1319.2833121547358
199,49.86988960167518
200,60.0
201,0.0311491662109375
163,4749419.923757048
2,4, 1,31, 0,17, 0.00,60.00,Tuesday
7,-0.5
94,20.395929531008727
95,952.7572110095113
158,0.03178386708984375
159,60.0
160,49.89074145522346
198,1343.1816232622898
199,49.89235281371074
200,60.0
201,0.03178386708984375
163,4835453.8437442439
2,4, 1,31, 0,18, 0.00,60.00,Tuesday
7,-0.6
94,20.40087340480369
95,962.3000499857491
158,0.0321256291015625
159,60.0
160,49.90766537977977
198,1354.5124152024018
199,49.91553329930983
200,60.0
201,0.0321256291015625
163,4876244.694728646
2,4, 1,31, 0,19, 0.00,60.00,Tuesday
7,-0.6
94,20.399411453759819
95,962.3582219657263
158,0.0321256291015625
159,60.0
160,49.908925230801859
198,1352.0143225856666
199,49.93414078304797
200,60.0
201,0.0321256291015625
163,4867251.5613084
2,4, 1,31, 0,20, 0.00,60.00,Tuesday
7,-0.5
94,20.40353432783609
95,962.4828938152428
158,0.0321256291015625
159,60.0
160,49.90855268073419
198,1350.2985959730886
199,49.946920656328867
200,60.0
201,0.0321256291015625
163,4861074.945503119
2,4, 1,31, 0,21, 0.00,60.00,Tuesday
7,-0.4
94,20.3975570174445
95,957.2363685871345
158,0.03193033652343749
159,60.0
160,49.90083799109131
198,1341.1147612440295
199,49.954230009386169
200,60.0
201,0.03193033652343749
163,4828013.140478507
2,4, 1,31, 0,22, 0.00,60.00,Tuesday
7,-0.3
94,20.3986886781894
95,954.6847431604593
158,0.031832690234374998
159,60.0
160,49.89493997607095
198,1336.6397223673569
199,49.957039717102009
200,60.0
201,0.031832690234374998
163,4811903.000522485
2,4, 1,31, 0,23, 0.00,60.00,Tuesday
7,-0.3
94,20.395708584695709
95,952.3072842134993
158,0.0317350439453125
159,60.0
160,49.89086201144664
198,1332.4934953191912
199,49.95738736548812
200,60.0
201,0.0317350439453125
163,4796976.583149089
2,4, 1,31, 0,24, 0.00,60.00,Tuesday
7,-0.3
94,20.397248386021894
95,953.417307686285
158,0.03178386708984375
159,60.0
160,49.89228396552262
198,1334.5606465047872
199,49.95725816322009
200,60.0
201,0.03178386708984375
163,4804418.327417234
2,5, 2, 1, 0, 1, 0.00,60.00,Wednesday
7,-0.2
94,20.412530887728889
95,989.6629402428554
158,0.03315091513671875
159,60.0
160,49.954438211066889
198,1390.437183585447
199,49.96825824874112
200,60.0
201,0.03315091513671875
163,5005573.860907609
2,5, 2, 1, 0, 2, 0.00,60.00,Wednesday
7,-0.1
94,20.420897553324566
95,1012.0191181095
158,0.0340785548828125
159,60.0
160,50.0008650870713
198,1425.7248063997713
199,49.993677410604949
200,59.99999999999999
201,0.0340785548828125
163,5132609.303039176
2,5, 2, 1, 0, 3, 0.00,60.00,Wednesday
7,0.0
94,20.42464294965587
95,1021.357755536379
158,0.03442031689453125
159,60.0
160,50.018773063117418
198,1436.0423359620513
199,50.02136070708516
200,60.00000000000001
201,0.03442031689453125
163,5169752.409463385
2,5, 2, 1, 0, 4, 0.00,60.00,Wednesday
7,0.2
94,20.421816125435379
95,1019.5021236196925
158,0.034371493749999999
159,60.00000000000001
160,50.01745759620307
198,1430.9912802262038
199,50.04235467199885
200,60.00000000000001
201,0.034371493749999999
163,5151568.608814334
2,5, 2, 1, 0, 5, 0.00,60.00,Wednesday
7,0.4
94,20.418451542112249
95,1012.7245197954745
158,0.0340785548828125
159,60.00000000000001
160,50.0032103833632
198,1417.2180908027085
199,50.053434893244077
200,59.99999999999999
201,0.0340785548828125
163,5101985.12688975
2,5, 2, 1, 0, 6, 0.00,60.00,Wednesday
7,0.5
94,20.4148711850374
95,1007.7684830086888
158,0.033883262304687498
159,60.00000000000001
160,49.99336303316174
198,1408.6273840531182
199,50.05674943344515
200,59.99999999999999
201,0.033883262304687498
163,5071058.582591225
2,5, 2, 1, 0, 7, 0.00,60.00,Wednesday
7,0.8
94,20.41011728405108
95,997.6546025985912
158,0.0334926771484375
159,60.0
160,49.974525819535177
198,1392.7628614016849
199,50.05408141391735
200,60.00000000000001
201,0.0334926771484375
163,5013946.301046065
2,5, 2, 1, 0, 8, 0.00,60.00,Wednesday
7,1.3
94,20.402251602939275
95,977.5695503462057
158,0.0327115068359375
159,60.0
160,49.93772515955551
198,1361.7843448782496
199,50.04306136902176
200,60.0
201,0.0327115068359375
163,4902423.641561698
2,5, 2, 1, 0, 9, 0.00,60.00,Wednesday
7,1.7
94,20.387204223914478
95,933.3910520414137
158,0.031002696777343749
159,60.0
160,49.85924237896407
198,1293.9699159048
199,50.01739662390541
200,60.00000000000001
201,0.031002696777343749
163,4658291.69725728
2,5, 2, 1, 0,10, 0.00,60.00,Wednesday
7,2.2
94,20.266582128505918
95,638.9505166811994
158,0.020481309130859376
159,60.0
160,49.44802295345859
198,860.9562770123981
199,49.94587359539995
200,60.0
201,0.020481309130859376
163,3099442.5972446335
2,5, 2, 1, 0,11, 0.00,60.00,Wednesday
7,3.2
94,20.22145807804339
95,524.9080694481416
158,0.016819573291015627
159,60.0
160,49.31111657277256
198,714.0562321540084
199,49.845922502650449
200,60.0
201,0.016819573291015627
163,2570602.43575443
2,5, 2, 1, 0,12, 0.00,60.00,Wednesday
7,4.2
94,20.191722748220984
95,482.316920731083
158,0.01557458310546875
159,60.0
160,49.268998301885208
198,666.8462426021408
199,49.75919461068107
200,60.0
201,0.01557458310546875
163,2400646.473367707
2,5, 2, 1, 0,13, 0.00,60.00,Wednesday
7,5.2
94,20.18901460068707
95,455.9117769053679
158,0.014646943359375001
159,60.0
160,49.24061476808749
198,631.5887311930992
199,49.68631840409347
200,60.0
201,0.014646943359375001
163,2273719.432295157
2,5, 2, 1, 0,14, 0.00,60.00,Wednesday
7,4.8
94,20.175551039342314
95,408.68718543479306
158,0.013060191162109377
159,60.0
160,49.209082017942197
198,566.4789701316041
199,49.62562677273491
200,60.0
201,0.013060191162109377
163,2039324.2924737749
2,5, 2, 1, 0,15, 0.00,60.00,Wednesday
7,4.3
94,20.199732585274828
95,494.5075193892565
158,0.016013991406249998
159,60.0
160,49.26686080452851
198,698.0019436668166
199,49.574768503456898
200,60.00000000000001
201,0.016013991406249998
163,2512806.99720054
2,5, 2, 1, 0,16, 0.00,60.00,Wednesday
7,3.9
94,20.27344264466095
95,692.8735106867881
158,0.0227515853515625
159,60.0
160,49.474476836694098
198,993.9655790551003
199,49.55066028956875
200,60.0
201,0.0227515853515625
163,3578276.084598361
2,5, 2, 1, 0,17, 0.00,60.00,Wednesday
7,3.6
94,20.335452668600813
95,817.0729140803611
158,0.0268527294921875
159,60.0
160,49.64987925681214
198,1170.5906103779528
199,49.57333799238563
200,60.00000000000001
201,0.0268527294921875
163,4214126.19736063
2,5, 2, 1, 0,18, 0.00,60.00,Wednesday
7,3.4
94,20.35865250396704
95,865.1125214101339
158,0.02851271640625
159,60.0
160,49.73456157079304
198,1236.636832780575
199,49.62635986937388
200,60.0
201,0.02851271640625
163,4451892.598010071
2,5, 2, 1, 0,19, 0.00,60.00,Wednesday
7,3.1
94,20.369804125136854
95,888.0663263698208
158,0.029342709863281255
159,60.0
160,49.77581040219664
198,1265.6024760483258
199,49.683711005400358
200,60.0
201,0.029342709863281255
163,4556168.913773973
2,5, 2, 1, 0,20, 0.00,60.00,Wednesday
7,2.5
94,20.375322513996097
95,906.4334499000445
158,0.030026233886718748
159,60.0
160,49.80816096727418
198,1288.5153818706233
199,49.73606105594844
200,60.0
201,0.030026233886718748
163,4638655.374734243
2,5, 2, 1, 0,21, 0.00,60.00,Wednesday
7,2.0
94,20.385588380423586
95,923.573738812942
158,0.030660934765625
159,60.0
160,49.837292456969638
198,1309.7698277112127