Program Version,EnergyPlus, Version 8.9.0-40101eaafd, YMD=2019.01.21 14:39
1,5,Environment Title[],Latitude[deg],Longitude[deg],Time Zone[],Elevation[m]
2,8,Day of Simulation[],Month[],Day of Month[],DST Indicator[1=yes 0=no],Hour[],StartMinute[],EndMinute[],DayType
3,5,Cumulative Day of Simulation[],Month[],Day of Month[],DST Indicator[1=yes 0=no],DayType  ! When Daily Report Variables Requested
4,2,Cumulative Days of Simulation[],Month[]  ! When Monthly Report Variables Requested
5,1,Cumulative Days of Simulation[] ! When Run Period Report Variables Requested
6,1,Calendar Year of Simulation[] ! When Annual Report Variables Requested
7,1,Environment,Site Outdoor Air Drybulb Temperature [C] !Hourly
314,1,ZONE ONE,Zone Air Temperature [C] !Hourly
315,1,ERV_1_HX,Heat Exchanger Total Heating Rate [W] !Hourly
379,1,ERV_1_FANSUPPLY,Fan Electric Power [W] !Hourly
393,1,ERV_1_FANSUPPLY,Fan Air Mass Flow Rate [kg/s] !Hourly
394,1,ERV_1_FANEXHAUST,Fan Electric Power [W] !Hourly
396,1,ERV_1_FANEXHAUST,Fan Air Mass Flow Rate [kg/s] !Hourly
397,1,RADIATOR,Baseboard Total Heating Rate [W] !Hourly
448,1,RADIATOR,Baseboard Hot Water Mass Flow Rate [kg/s] !Hourly
449,1,RADIATOR,Baseboard Water Inlet Temperature [C] !Hourly
450,1,RADIATOR,Baseboard Water Outlet Temperature [C] !Hourly
587,1,DISTRICT HEATING 1,District Heating Rate [W] !Hourly
588,1,DISTRICT HEATING 1,District Heating Inlet Temperature [C] !Hourly
589,1,DISTRICT HEATING 1,District Heating Outlet Temperature [C] !Hourly
590,1,DISTRICT HEATING 1,District Heating Mass Flow Rate [kg/s] !Hourly
120,1,DistrictHeating:Facility [J] !Hourly
End of Data Dictionary
1,ANNUAL SIM 1,  59.65,  17.95,   1.00,  61.00
2,1, 1, 1, 0, 1, 0.00,60.00,Sunday
7,1.9
314,16.687849240236596
315,0.0
379,0.0
393,0.0
394,0.0
396,0.0
397,0.0
448,0.0
449,59.992784954083
450,59.992784954083
587,0.0
588,50.004663762813198
589,50.004663762813198
590,0.0
120,43200.0
2,1, 1, 1, 0, 2, 0.00,60.00,Sunday
7,2.0
314,16.561095198966784
315,0.0
379,0.0
393,0.0
394,0.0
396,0.0
397,0.0
448,0.0
449,59.992784954083
450,59.992784954083
587,0.0
588,50.004663762813198
589,50.004663762813198
590,0.0
120,43200.0
2,1, 1, 1, 0, 3, 0.00,60.00,Sunday
7,1.9
314,16.4491480820637
315,0.0
379,0.0
393,0.0
394,0.0
396,0.0
397,0.0
448,0.0
449,59.992784954083
450,59.992784954083
587,0.0
588,50.004663762813198
589,50.004663762813198
590,0.0
120,43200.0
2,1, 1, 1, 0, 4, 0.00,60.00,Sunday
7,2.1
314,16.34726024153004
315,0.0
379,0.0
393,0.0
394,0.0
396,0.0
397,0.0
448,0.0
449,59.992784954083
450,59.992784954083
587,0.0
588,50.004663762813198
589,50.004663762813198
590,0.0
120,43200.0
2,1, 1, 1, 0, 5, 0.00,60.00,Sunday
7,2.0
314,16.22992960377572
315,0.0
379,0.0
393,0.0
394,0.0
396,0.0
397,0.0
448,0.0
449,59.992784954083
450,59.992784954083
587,0.0
588,50.004663762813198
589,50.004663762813198
590,0.0
120,43200.0
2,1, 1, 1, 0, 6, 0.00,60.00,Sunday
7,1.9
314,19.921579835427566
315,0.0
379,0.0
393,0.0
394,0.0
396,0.0
397,1071.8380330094467
448,0.034611853846153849
449,59.949698194827359
450,49.65247490160444
587,1430.5365159622143
588,49.96517629725939
589,59.899405166480168
590,0.034611853846153849
120,5193131.457463972
2,1, 1, 1, 0, 7, 0.00,60.00,Sunday
7,1.8
314,19.995535256451477
315,0.0
379,0.0
393,0.0
394,0.0
396,0.0
397,889.3065348361092
448,0.034176201171875007
449,59.961523604375219
450,49.69540376261984
587,1441.8940457633328
588,49.90745525823996
589,60.0
590,0.034176201171875007
120,5255618.5647479989
2,1, 1, 1, 0, 8, 0.00,60.00,Sunday
7,2.0
314,20.0896564227526
315,0.0
379,0.0
393,0.0
394,0.0
396,0.0
397,854.0479264656623
448,0.031168695468750009
449,59.97371247517416
450,49.57546831996425
587,1325.622960893156
588,49.827567733639387
589,60.0
590,0.031168695468750009
120,4952242.659215362
2,1, 1, 1, 0, 9, 0.00,60.00,Sunday
7,2.1
314,20.098600305536853
315,0.0
379,0.0
393,0.0
394,0.0
396,0.0
397,890.1533452162433
448,0.032731036093750009
449,59.98206903650339
450,49.666850170568199
587,1398.0320690848469
588,49.783980790633318
589,60.0
590,0.032731036093750009
120,5299315.448705449
2,1, 1, 1, 0,10, 0.00,60.00,Sunday
7,2.2
314,20.093879928017708
315,0.0
379,0.0
393,0.0
394,0.0
396,0.0
397,869.5707546368948
448,0.031871748750000008
449,59.98783727364786
450,49.63200491377458
587,1364.331571225454
588,49.761441305166197
589,60.0
590,0.031871748750000008
120,5163593.656411634
2,1, 1, 1, 0,11, 0.00,60.00,Sunday
7,2.1
314,19.92789393563569
315,0.0
379,0.0
393,0.0
394,0.0
396,0.0
397,1238.0459118385068
448,0.0499949
449,59.87531309227759
450,50.46696722330916
587,2000.0
588,49.94400656831333
589,59.512097351917727
590,0.0499949
120,7430400.0
2,1, 1, 1, 0,12, 0.00,60.00,Sunday
7,1.6
314,19.96031212383524
315,0.0
379,0.0
393,0.0
394,0.0
396,0.0
397,1232.820771731925
448,0.0499949
449,59.77428722801327
450,50.37917026275933
587,2000.0
588,50.18767672980464
589,59.75557009211689
590,0.0499949
120,7452000.0
2,1, 1, 1, 0,13, 0.00,60.00,Sunday
7,1.6
314,20.069604757382938
315,0.0
379,0.0
393,0.0
394,0.0
396,0.0
397,1226.7072380133661
448,0.0499949
449,59.7944922455013
450,50.437855489227327
587,2000.0
588,50.31812515370683
589,59.88589911122372
590,0.0499949
120,7502400.0
2,1, 1, 1, 0,14, 0.00,60.00,Sunday
7,1.2
314,20.005424971242474
315,0.0
379,0.0
393,0.0
394,0.0
396,0.0
397,1221.8618787131848
448,0.0499949
449,59.86032213859644
450,50.54036725402279
587,2000.0
588,50.42706595056296
589,59.9947401923818
590,0.0499949
120,7466400.0
2,1, 1, 1, 0,15, 0.00,60.00,Sunday
7,0.4
314,19.930158400732379
315,0.0
379,0.0
393,0.0
394,0.0
396,0.0
397,1222.0546954300653
448,0.0499949
449,59.923946579807019
450,50.58894860274457
587,1981.7465526506292
588,50.519731319932528
589,60.0
590,0.0499949
120,7393487.589542265
2,1, 1, 1, 0,16, 0.00,60.00,Sunday
7,0.0
314,19.890157049280199
315,0.0
379,0.0
393,0.0
394,0.0
396,0.0
397,1222.5294126471094
448,0.0499949
449,59.958260998033349
450,50.60498144739263
587,1968.2332155258955
588,50.584434632175
589,60.0
590,0.0499949
120,7308839.575893224
2,1, 1, 1, 0,17, 0.00,60.00,Sunday
7,-0.6
314,20.170115781807849
315,0.0
379,0.0
393,0.0
394,0.0
396,0.0
397,809.9064802298711
448,0.029996940000000004
449,59.97441835978228
450,49.639553317947129
587,1196.1541053619067
588,50.463022119539477
589,60.0
590,0.029996940000000004
120,4536554.779302864
2,1, 1, 1, 0,18, 0.00,60.00,Sunday
7,-0.9
314,20.56196302928038
315,0.0
379,0.0
393,0.0
394,0.0
396,0.0
397,815.4294029495326
448,0.029996940000000004
449,59.98215229523804
450,49.73896754117855
587,1223.1257124133494
588,50.24777559956341
589,60.0
590,0.029996940000000004
120,4727252.564688058
2,1, 1, 1, 0,19, 0.00,60.00,Sunday
7,-1.2
314,20.65631438655314
315,0.0
379,0.0
393,0.0
394,0.0
396,0.0
397,804.1760048234254
448,0.029996940000000004
449,59.987548078912869
450,49.80512428701273
587,1238.3475254461182
588,50.126294460280238
589,60.0
590,0.029996940000000004
120,4760451.091606026
2,1, 1, 1, 0,20, 0.00,60.00,Sunday
7,-1.5
314,20.717038553022907
315,0.0
379,0.0
393,0.0
394,0.0
396,0.0
397,807.5374866558706
448,0.029996940000000004
449,59.9913125894434
450,49.758432297562539
587,1248.9750196903337
588,50.04147754542618
589,60.0
590,0.029996940000000004
120,4748310.070885202
2,1, 1, 1, 0,21, 0.00,60.00,Sunday
7,-1.6
314,18.49923554608679
315,0.0
379,0.0
393,0.0
394,0.0
396,0.0
397,0.0
448,0.0
449,59.99278270134615
450,59.99278270134615
587,0.0
588,50.00464063675897
589,50.00464063675897
590,0.0
120,216000.0
2,1, 1, 1, 0,22, 0.00,60.00,Sunday
7,-2.1
314,17.798738186955853
315,0.0
379,0.0
393,0.0
394,0.0
396,0.0
397,0.0
448,0.0
449,59.992782701346168
450,59.992782701346168
587,0.0
588,50.00464063675898
589,50.00464063675898
590,0.0
120,244800.0
2,1, 1, 1, 0,23, 0.00,60.00,Sunday
7,-2.2
314,17.382006462519
315,0.0
379,0.0
393,0.0
394,0.0
396,0.0
397,0.0
448,0.0
449,59.992782701346168
450,59.992782701346168
587,0.0
588,50.00464063675898
589,50.00464063675898
590,0.0
120,187200.0
2,1, 1, 1, 0,24, 0.00,60.00,Sunday
7,-2.1
314,16.98626089507804
315,0.0
379,0.0
393,0.0
394,0.0
396,0.0
397,0.0
448,0.0
449,59.992782701346168
450,59.992782701346168
587,0.0
588,50.00464063675898
589,50.00464063675898
590,0.0
120,86400.0
2,2, 1, 2, 0, 1, 0.00,60.00,Monday
7,-2.0
314,16.92069947473593
315,0.0
379,0.0
393,0.0
394,0.0
396,0.0
397,0.0
448,0.0
449,59.992782701346168
450,59.992782701346168
587,0.0
588,50.00464063675898
589,50.00464063675898
590,0.0
120,43200.0
2,2, 1, 2, 0, 2, 0.00,60.00,Monday
7,-1.9
314,16.864703856502467
315,0.0
379,0.0
393,0.0
394,0.0
396,0.0
397,0.0
448,0.0
449,59.992782701346168
450,59.992782701346168
587,0.0
588,50.00464063675898
589,50.00464063675898
590,0.0
120,43200.0
2,2, 1, 2, 0, 3, 0.00,60.00,Monday
7,-2.3
314,16.732658899085754
315,0.0
379,0.0
393,0.0
394,0.0
396,0.0
397,0.0
448,0.0
449,59.992782701346168
450,59.992782701346168
587,0.0
588,50.00464063675898
589,50.00464063675898
590,0.0
120,43200.0
2,2, 1, 2, 0, 4, 0.00,60.00,Monday
7,-2.5
314,16.62341366126306
315,0.0
379,0.0
393,0.0
394,0.0
396,0.0
397,0.0
448,0.0
449,59.992782701346168
450,59.992782701346168
587,0.0
588,50.00464063675898
589,50.00464063675898
590,0.0
120,43200.0
2,2, 1, 2, 0, 5, 0.00,60.00,Monday
7,-2.7
314,16.53882640182051
315,0.0
379,0.0
393,0.0
394,0.0
396,0.0
397,0.0
448,0.0
449,59.992782701346168
450,59.992782701346168
587,0.0
588,50.00464063675898
589,50.00464063675898
590,0.0
120,43200.0
2,2, 1, 2, 0, 6, 0.00,60.00,Monday
7,-2.8
314,20.067788712412164
315,0.0
379,0.0
393,0.0
394,0.0
396,0.0
397,980.0236085921614
448,0.03227535341145834
449,59.96093576496138
450,50.56180335072756
587,1338.4336702416697
588,49.96439167175233
589,59.089403163377777
590,0.03227535341145834
120,4861561.212870011
2,2, 1, 2, 0, 7, 0.00,60.00,Monday
7,-2.9
314,20.20624737202233
315,0.0
379,0.0
393,0.0
394,0.0
396,0.0
397,835.5925215642352
448,0.03064791526041667
449,59.9700634809266
450,49.57488657380801
587,1295.2975669463008
588,49.890710136300089
589,60.0
590,0.03064791526041667
120,4864671.241006683
2,2, 1, 2, 0, 8, 0.00,60.00,Monday
7,-2.9
314,20.430296359324119
315,0.0
379,0.0
393,0.0
394,0.0
396,0.0
397,822.9135267314706
448,0.029996940000000004
449,59.979144712536569
450,49.59680373358279
587,1277.1082757846928
588,49.81703154676604
589,60.0
590,0.029996940000000004
120,4950389.792824894
2,2, 1, 2, 0, 9, 0.00,60.00,Monday
7,-3.3
314,19.63859624852857
315,0.0
379,0.0
393,0.0
394,0.0
396,0.0
397,1205.7372628385772
448,0.049994899999999998
449,59.8655470006031
450,50.44840971321473
587,2000.0
588,49.98307348570427
589,59.55113432819319
590,0.049994899999999998
120,7502400.0
2,2, 1, 2, 0,10, 0.00,60.00,Monday
7,-3.4
314,19.537976711933358
315,0.0
379,0.0
393,0.0
394,0.0
396,0.0
397,1241.9734369849537
448,0.0499949
449,59.78068137693139
450,50.274717574498939
587,2000.0
588,50.166495895406978
589,59.734408645687349
590,0.0499949
120,7430400.0
2,2, 1, 2, 0,11, 0.00,60.00,Monday
7,-3.6
314,19.63012293865692
315,0.0
379,0.0
393,0.0
394,0.0
396,0.0
397,1234.9856793066017
448,0.0499949
449,59.782116428311017
450,50.33640101767736
587,2000.0
588,50.26011613454197
589,59.827943189726529
590,0.0499949
120,7394400.0
2,2, 1, 2, 0,12, 0.00,60.00,Monday
7,-3.8
314,19.784953751753297
315,0.0
379,0.0
393,0.0
394,0.0
396,0.0
397,1228.542620335294
448,0.0499949
449,59.82189623731027
450,50.41877095516562
587,2000.0
588,50.34445846626429
589,59.912208320181139
590,0.0499949
120,7437600.0
2,2, 1, 2, 0,13, 0.00,60.00,Monday
7,-4.2
314,19.8540730093833
315,0.0
379,0.0
393,0.0
394,0.0
396,0.0
397,1224.4018193894515
448,0.0499949
449,59.88253796305577
450,50.516773826928538
587,2000.0
588,50.43178909051313
589,59.999459009194179
590,0.0499949
120,7495200.0
2,2, 1, 2, 0,14, 0.00,60.00,Monday
7,-4.2
314,19.780606289815485
315,0.0
379,0.0
393,0.0
394,0.0
396,0.0
397,1222.8170067140347
448,0.0499949
449,59.93694657223556
450,50.57970747248072
587,1982.6849830900462
588,50.51523798423803
589,60.00000000000001
590,0.0499949
120,7389665.939124166
2,2, 1, 2, 0,15, 0.00,60.00,Monday
7,-4.4
314,19.798594194763778
315,0.0
379,0.0
393,0.0
394,0.0
396,0.0
397,1222.8258861319969
448,0.0499949
449,59.96539554514727
450,50.58533688092412
587,1970.1579577681919
588,50.57521880817312
589,59.99999999999999
590,0.0499949
120,7337368.647965491
2,2, 1, 2, 0,16, 0.00,60.00,Monday
7,-4.8
314,19.78086658657852
315,0.0
379,0.0
393,0.0
394,0.0
396,0.0
397,1222.4414318773627
448,0.0499949
449,59.98100867251612
450,50.601855787315688
587,1962.1882741362308
588,50.61337820247419
589,60.00000000000001
590,0.0499949
120,7272677.786890431
2,2, 1, 2, 0,17, 0.00,60.00,Monday
7,-5.2
314,19.758909555642089
315,0.0
379,0.0
393,0.0
394,0.0
396,0.0
397,1221.3931460044632
448,0.0499949
449,59.98957733849198
450,50.60538505916038
587,1956.930570378399
588,50.63855229763325
589,60.0
590,0.0499949
120,7275350.053362236
2,2, 1, 2, 0,18, 0.00,60.00,Monday
7,-5.2
314,20.011844268500725
315,0.0
379,0.0
393,0.0
394,0.0
396,0.0
397,1159.8017136721337
448,0.04647963359375
449,59.99420360424608
450,50.45327559005658
587,1821.8183382879556
588,50.62513395885719
589,59.99999999999999
590,0.04647963359375
120,6918546.01783664
2,2, 1, 2, 0,19, 0.00,60.00,Monday
7,-5.3
314,20.49112491988454
315,0.0
379,0.0
393,0.0
394,0.0
396,0.0
397,612.6954095659087
448,0.022497705000000004
449,59.99622856336866
450,52.285203044702729
587,894.5869739707957
588,50.482794812938028
589,57.615349391213189
590,0.022497705000000004
120,3573313.106294865
2,2, 1, 2, 0,20, 0.00,60.00,Monday
7,-5.1
314,21.329537342060868
315,0.0
379,0.0
393,0.0
394,0.0
396,0.0
397,847.415978083315
448,0.029996940000000004
449,59.99720841690829
450,49.87806179214838
587,1214.354727048303
588,50.317773268494189
589,60.0
590,0.029996940000000004
120,4659677.017373891
2,2, 1, 2, 0,21, 0.00,60.00,Monday
7,-5.0
314,19.18539009281085
315,0.0
379,0.0
393,0.0
394,0.0
396,0.0
397,0.0
448,0.0
449,59.997680817689147
450,59.997680817689147
587,0.0
588,50.26284000491388
589,50.26284000491388
590,0.0
120,259200.0
2,2, 1, 2, 0,22, 0.00,60.00,Monday
7,-5.1
314,18.638121005263753
315,0.0
379,0.0
393,0.0
394,0.0
396,0.0
397,0.0
448,0.0
449,59.99768081768916
450,59.99768081768916
587,0.0
588,50.26284000491388
589,50.26284000491388
590,0.0
120,324000.0
2,2, 1, 2, 0,23, 0.00,60.00,Monday
7,-5.0
314,18.095055988113726
315,0.0
379,0.0
393,0.0
394,0.0
396,0.0
397,0.0
448,0.0
449,59.99768081768916
450,59.99768081768916
587,0.0
588,50.26284000491388
589,50.26284000491388
590,0.0
120,216000.0
2,2, 1, 2, 0,24, 0.00,60.00,Monday
7,-4.9
314,17.61003099813507
315,0.0
379,0.0
393,0.0
394,0.0
396,0.0
397,0.0
448,0.0
449,59.99768081768916
450,59.99768081768916
587,0.0
588,50.26284000491388
589,50.26284000491388
590,0.0
120,57600.0
2,3, 1, 3, 0, 1, 0.00,60.00,Tuesday
7,-5.0
314,17.1340155370146
315,0.0
379,0.0
393,0.0
394,0.0
396,0.0
397,0.0
448,0.0
449,59.99768081768916
450,59.99768081768916
587,0.0
588,50.26284000491388
589,50.26284000491388
590,0.0
120,43200.0
2,3, 1, 3, 0, 2, 0.00,60.00,Tuesday
7,-5.2
314,16.965615894120196
315,0.0
379,0.0
393,0.0
394,0.0
396,0.0
397,0.0
448,0.0
449,59.99768081768916
450,59.99768081768916
587,0.0
588,50.26284000491388
589,50.26284000491388
590,0.0
120,43200.0
2,3, 1, 3, 0, 3, 0.00,60.00,Tuesday
7,-5.3
314,16.83870275740305
315,0.0
379,0.0
393,0.0
394,0.0
396,0.0
397,0.0
448,0.0
449,59.99768081768916
450,59.99768081768916
587,0.0
588,50.26284000491388
589,50.26284000491388
590,0.0
120,43200.0
2,3, 1, 3, 0, 4, 0.00,60.00,Tuesday
7,-5.4
314,16.70357937161275
315,0.0
379,0.0
393,0.0
394,0.0
396,0.0
397,0.0
448,0.0
449,59.99768081768916
450,59.99768081768916
587,0.0
588,50.26284000491388
589,50.26284000491388
590,0.0
120,43200.0
2,3, 1, 3, 0, 5, 0.00,60.00,Tuesday
7,-5.6
314,16.591227639711599
315,0.0
379,0.0
393,0.0
394,0.0
396,0.0
397,0.0
448,0.0
449,59.99768081768916
450,59.99768081768916
587,0.0
588,50.26284000491388
589,50.26284000491388
590,0.0
120,43200.0
2,3, 1, 3, 0, 6, 0.00,60.00,Tuesday
7,-5.6
314,20.213845918288248
315,0.0
379,0.0
393,0.0
394,0.0
396,0.0
397,1030.7046719454074
448,0.03364240145833334
449,59.98384992925676
450,49.69203745370183
587,1374.8167062647221
588,50.171976292101977
589,59.96879164101336
590,0.03364240145833334
120,4992540.142553
2,3, 1, 3, 0, 7, 0.00,60.00,Tuesday
7,-5.8
314,20.099537844882584
315,0.0
379,0.0
393,0.0
394,0.0
396,0.0
397,771.064609811044
448,0.029996940000000004
449,59.98764426000278
450,49.54940805674598
587,1251.0979665313466
588,50.02453719256773
589,60.0
590,0.029996940000000004
120,4705552.679512848
2,3, 1, 3, 0, 8, 0.00,60.00,Tuesday
7,-5.8
314,20.655631167687074
315,0.0
379,0.0
393,0.0
394,0.0
396,0.0
397,840.1004919145486
448,0.029996940000000004
449,59.991379692712857
450,49.60254948390894
587,1266.4324404917381
588,49.90219598159668
589,60.0
590,0.029996940000000004
120,4911956.785770257
2,3, 1, 3, 0, 9, 0.00,60.00,Tuesday
7,-6.7
314,19.264277007869845
315,0.0
379,0.0
393,0.0
394,0.0
396,0.0
397,1164.9550926355348
448,0.0499949
449,59.88843135919514
450,50.40518518762054
587,2000.0
588,50.037954663613138
589,59.605976907860227
590,0.0499949
120,7502400.0
2,3, 1, 3, 0,10, 0.00,60.00,Tuesday
7,-5.9
314,19.235441975393113
315,0.0
379,0.0
393,0.0
394,0.0
396,0.0
397,1243.0609993576127
448,0.0499949
449,59.79921919539332
450,50.159116877648198
587,2000.0
588,50.151271046580067
589,59.71919773304001
590,0.0499949
120,7430400.0
2,3, 1, 3, 0,11, 0.00,60.00,Tuesday
7,-5.6
314,19.485330205667716
315,0.0
379,0.0
393,0.0
394,0.0
396,0.0
397,1238.0537907409228
448,0.0499949
449,59.77768247659722
450,50.262548004249229
587,2000.0
588,50.20995667634267
589,59.77782964469455
590,0.0499949
120,7394400.0
2,3, 1, 3, 0,12, 0.00,60.00,Tuesday
7,-5.5
314,19.66398740571858
315,0.0
379,0.0
393,0.0
394,0.0
396,0.0
397,1228.7294665091363
448,0.0499949
449,59.79587606583635
450,50.36594526145278
587,2000.0
588,50.288823346044569
589,59.85662412444887
590,0.0499949
120,7437600.0
2,3, 1, 3, 0,13, 0.00,60.00,Tuesday
7,-5.4
314,19.771031743498349
315,0.0
379,0.0
393,0.0
394,0.0
396,0.0
397,1223.5919661632972
448,0.0499949
449,59.843302648863609
450,50.46009394244386
587,2000.0
588,50.37646503198703
589,59.94418558958382
590,0.0499949
120,7495200.0
2,3, 1, 3, 0,14, 0.00,60.00,Tuesday
7,-5.5
314,19.71749632762119
315,0.0
379,0.0
393,0.0
394,0.0
396,0.0
397,1221.6203354962593
448,0.0499949
449,59.90386704085985
450,50.538135079583209
587,1993.584652838394
588,50.46304856358248
589,60.0
590,0.0499949
120,7428904.750218218
2,3, 1, 3, 0,15, 0.00,60.00,Tuesday
7,-5.7
314,19.688827909335104
315,0.0
379,0.0
393,0.0
394,0.0
396,0.0
397,1222.2559784479822
448,0.0499949
449,59.947241113411738
450,50.56129875039749
587,1979.1491546284901
588,50.53216800339427
589,60.0
590,0.0499949
120,7369736.956662565
2,3, 1, 3, 0,16, 0.00,60.00,Tuesday
7,-6.0
314,19.66323155064584
315,0.0
379,0.0
393,0.0
394,0.0
396,0.0
397,1221.8204953111203
448,0.0499949
449,59.971045309133
450,50.57394944720988
587,1969.5884015765532
588,50.57794589171043
589,60.0
590,0.0499949
120,7299318.245675592
2,3, 1, 3, 0,17, 0.00,60.00,Tuesday
7,-6.1
314,19.702011832797493
315,0.0
379,0.0
393,0.0
394,0.0
396,0.0
397,1220.4035179307994
448,0.0499949
449,59.98410932873268
450,50.57876075406692
587,1963.555212321822
588,50.606833228078887
589,60.00000000000001
590,0.0499949
120,7299198.764358559
2,3, 1, 3, 0,18, 0.00,60.00,Tuesday
7,-6.2
314,20.011848126635763
315,0.0
379,0.0
393,0.0
394,0.0
396,0.0
397,1179.7747001623407
448,0.04757327203125
449,59.99122792197002
450,50.50243425172191
587,1866.6019019623568
588,50.6157650923365
589,60.0
590,0.04757327203125
120,7079766.847064485
2,3, 1, 3, 0,19, 0.00,60.00,Tuesday
7,-6.2
314,20.477221414465786
315,0.0
379,0.0
393,0.0
394,0.0
396,0.0
397,611.4208186637893
448,0.022497705000000004
449,59.99432494193099
450,52.28529126039658
587,894.3366987189829
588,50.485474709259658
589,57.61603202373877
590,0.022497705000000004
120,3572412.1153883386
2,3, 1, 3, 0,20, 0.00,60.00,Tuesday
7,-6.2
314,21.33661011344006
315,0.0
379,0.0
393,0.0
394,0.0
396,0.0
397,847.4647617370003
448,0.029996940000000004
449,59.99579937363437
450,49.880607104537499
587,1214.0936559498393
588,50.3198567561293
589,60.0
590,0.029996940000000004
120,4658737.161419421
2,3, 1, 3, 0,21, 0.00,60.00,Tuesday
7,-6.3
314,19.149749821516047
315,0.0
379,0.0
393,0.0
394,0.0
396,0.0
397,0.0
448,0.0
449,59.99651021730624
450,59.99651021730624
587,0.0
588,50.265217528499778
589,50.265217528499778
590,0.0
120,259200.0
2,3, 1, 3, 0,22, 0.00,60.00,Tuesday
7,-6.4
314,18.615985976388428
315,0.0
379,0.0
393,0.0
394,0.0
396,0.0
397,0.0
448,0.0
449,59.996510217306248
450,59.996510217306248
587,0.0
588,50.26521752849978
589,50.26521752849978
590,0.0
120,324000.0
2,3, 1, 3, 0,23, 0.00,60.00,Tuesday
7,-6.7
314,17.915833538688653
315,0.0
379,0.0
393,0.0
394,0.0
396,0.0
397,0.0
448,0.0
449,59.996510217306248
450,59.996510217306248
587,0.0
588,50.265217528499778
589,50.265217528499778
590,0.0
120,216000.0
2,3, 1, 3, 0,24, 0.00,60.00,Tuesday
7,-7.0
314,17.601601673715487
315,0.0
379,0.0
393,0.0
394,0.0
396,0.0
397,0.0
448,0.0
449,59.996510217306248
450,59.996510217306248
587,0.0
588,50.26521752849978
589,50.26521752849978
590,0.0
120,57600.0
2,4, 1, 4, 0, 1, 0.00,60.00,Wednesday
7,-7.4
314,16.622954897937235
315,0.0
379,0.0
393,0.0
394,0.0
396,0.0
397,0.0
448,0.0
449,59.996510217306248
450,59.996510217306248
587,0.0
588,50.26521752849978
589,50.26521752849978
590,0.0
120,43200.0
2,4, 1, 4, 0, 2, 0.00,60.00,Wednesday
7,-7.6
314,16.35052428512914
315,0.0
379,0.0
393,0.0
394,0.0
396,0.0
397,0.0
448,0.0
449,59.996510217306248
450,59.996510217306248
587,0.0
588,50.26521752849978
589,50.26521752849978
590,0.0
120,43200.0
2,4, 1, 4, 0, 3, 0.00,60.00,Wednesday
7,-7.8
314,16.249691535716719
315,0.0
379,0.0
393,0.0
394,0.0
396,0.0
397,0.0
448,0.0
449,59.996510217306248
450,59.996510217306248
587,0.0
588,50.26521752849978
589,50.26521752849978
590,0.0
120,43200.0
2,4, 1, 4, 0, 4, 0.00,60.00,Wednesday
7,-8.1
314,16.089000387692847
315,0.0
379,0.0
393,0.0
394,0.0
396,0.0
397,0.0
448,0.0
449,59.996510217306248
450,59.996510217306248
587,0.0
588,50.26521752849978
589,50.26521752849978
590,0.0
120,43200.0
2,4, 1, 4, 0, 5, 0.00,60.00,Wednesday
7,-8.5
314,15.911728964967472
315,0.0
379,0.0
393,0.0
394,0.0
396,0.0
397,0.0
448,0.0
449,59.996510217306248
450,59.996510217306248
587,0.0
588,50.26521752849978
589,50.26521752849978
590,0.0
120,43200.0
2,4, 1, 4, 0, 6, 0.00,60.00,Wednesday
7,-8.7
314,19.6040022598218
315,0.0
379,0.0
393,0.0
394,0.0
396,0.0
397,1105.6813409286653
448,0.03603598741586538
449,59.97735413593926
450,49.662488196730318
587,1470.2079026470844
588,50.17079279813742
589,59.95456583066769
590,0.03603598741586538
120,5335948.449529504
2,4, 1, 4, 0, 7, 0.00,60.00,Wednesday
7,-9.6
314,20.00875014142376
315,0.0
379,0.0
393,0.0
394,0.0
396,0.0
397,985.5774287504753
448,0.0376524090625
449,59.98326240840241
450,49.85618248753781
587,1559.3845912760844
588,50.09189844636349
589,60.0
590,0.0376524090625
120,5815384.528593903
2,4, 1, 4, 0, 8, 0.00,60.00,Wednesday
7,-10.8
314,20.104054331524666
315,0.0
379,0.0
393,0.0
394,0.0
396,0.0
397,953.0604929862345
448,0.035465132187500008
449,59.98896924661605
450,49.79389316091453
587,1482.411786988201
588,50.00260156102284
589,60.0
590,0.035465132187500008
120,5689482.433157523
2,4, 1, 4, 0, 9, 0.00,60.00,Wednesday
7,-10.9
314,18.124805513872077
315,0.0
379,0.0
393,0.0
394,0.0
396,0.0
397,1162.7757592094952
448,0.04999490000000001
449,59.89993065909114
450,50.1654218321717
587,2000.0
588,50.06629065839057
589,59.63429513310702
590,0.04999490000000001
120,7502400.0
2,4, 1, 4, 0,10, 0.00,60.00,Wednesday
7,-9.2
314,17.9280315503299
315,0.0
379,0.0
393,0.0
394,0.0
396,0.0
397,1289.4262129612916
448,0.0499949
449,59.7771414248891
450,49.837833881873809
587,2000.0
588,50.03084799596513
589,59.59888491399832
590,0.0499949
120,7430400.0
2,4, 1, 4, 0,11, 0.00,60.00,Wednesday
7,-8.4
314,18.31995152913508
315,0.0
379,0.0
393,0.0
394,0.0
396,0.0
397,1272.4196789892535
448,0.0499949
449,59.68563167745974
450,49.925692584966217
587,2000.0
588,49.99251966695019
589,59.560588246397788
590,0.0499949
120,7394400.0
2,4, 1, 4, 0,12, 0.00,60.00,Wednesday
7,-7.9
314,18.514641985112026
315,0.0
379,0.0
393,0.0
394,0.0
396,0.0
397,1247.0791398776526
448,0.0499949
449,59.63417921864272
450,49.97503106299564
587,2000.0
588,50.00661962385354
589,59.57467872010361
590,0.0499949
120,7437600.0
2,4, 1, 4, 0,13, 0.00,60.00,Wednesday
7,-7.7
314,18.590972427669589
315,0.0
379,0.0
393,0.0
394,0.0
396,0.0
397,1244.1772862126936
448,0.0499949
449,59.61201703144723
450,49.98776541567936
587,2000.0
588,50.02501647082462
589,59.59305872692183
590,0.0499949
120,7495200.0
2,4, 1, 4, 0,14, 0.00,60.00,Wednesday
7,-7.3
314,18.546146489701898
315,0.0
379,0.0
393,0.0
394,0.0
396,0.0
397,1239.8770895376208
448,0.0499949
449,59.607986414945489
450,50.01655300715333
587,2000.0
588,50.04484019514947
589,59.61286430502154
590,0.0499949
120,7452000.0
2,4, 1, 4, 0,15, 0.00,60.00,Wednesday
7,-6.6
314,18.620722095379418
315,0.0
379,0.0
393,0.0
394,0.0
396,0.0
397,1240.5171567108152
448,0.0499949
449,59.614312328044707
450,50.022478006551697
587,2000.0
588,50.063038149804018
589,59.6310456017073
590,0.0499949
120,7444800.0
2,4, 1, 4, 0,16, 0.00,60.00,Wednesday
7,-6.4
314,18.668060972400548
315,0.0
379,0.0
393,0.0
394,0.0
396,0.0
397,1238.3186333169847
448,0.0499949
449,59.62628640721484
450,50.055575089942127
587,2000.0
588,50.08243810125601
589,59.6504277949755
590,0.0499949
120,7408800.0
2,4, 1, 4, 0,17, 0.00,60.00,Wednesday
7,-6.2
314,18.724850755558419
315,0.0
379,0.0
393,0.0
394,0.0
396,0.0
397,1237.4686137204835
448,0.0499949
449,59.64265183063067
450,50.08181355537996
587,2000.0
588,50.106317214455788
589,59.67428504998009
590,0.0499949
120,7430400.0
2,4, 1, 4, 0,18, 0.00,60.00,Wednesday
7,-6.5
314,19.101790385867355
315,0.0
379,0.0
393,0.0
394,0.0
396,0.0
397,1241.5593447091237
448,0.0499949
449,59.66328735123247
450,50.137380575553979
587,2000.0
588,50.13514680486011
589,59.703088250819209
590,0.0499949
120,7560000.0
2,4, 1, 4, 0,19, 0.00,60.00,Wednesday
7,-7.0
314,20.451324085962637
315,0.0
379,0.0
393,0.0
394,0.0
396,0.0
397,929.5183181167479
448,0.033238796796875007
449,59.736475911397018
450,49.64120921363178
587,1377.328108231197
588,50.08339946741623
589,60.0
590,0.033238796796875007
120,5311181.189632309
2,4, 1, 4, 0,20, 0.00,60.00,Wednesday
7,-6.8
314,20.3651214292098
315,0.0
379,0.0
393,0.0
394,0.0
396,0.0
397,805.0175964515482
448,0.029996940000000004
449,59.81718666900216
450,49.6542848072313
587,1258.3884968312511
588,49.96636458212024
589,60.0
590,0.029996940000000004
120,4818198.588592504
2,4, 1, 4, 0,21, 0.00,60.00,Wednesday
7,-9.6
314,17.874107987152397
315,0.0
379,0.0
393,0.0
394,0.0
396,0.0
397,0.0
448,0.0
449,59.84812293615932
450,59.84812293615932
587,0.0
588,49.924614050585777
589,49.924614050585777
590,0.0
120,259200.0
2,4, 1, 4, 0,22, 0.00,60.00,Wednesday
7,-9.6
314,17.159646350411316
315,0.0
379,0.0
393,0.0
394,0.0
396,0.0
397,0.0
448,0.0
449,59.84812293615933
450,59.84812293615933
587,0.0
588,49.924614050585777
589,49.924614050585777
590,0.0
120,324000.0
2,4, 1, 4, 0,23, 0.00,60.00,Wednesday
7,-9.8
314,16.671542153882745
315,0.0
379,0.0
393,0.0
394,0.0
396,0.0
397,0.0
448,0.0
449,59.84812293615933
450,59.84812293615933
587,0.0
588,49.924614050585777
589,49.924614050585777
590,0.0
120,216000.0
2,4, 1, 4, 0,24, 0.00,60.00,Wednesday
7,-7.0
314,16.339087722805865
315,0.0
379,0.0
393,0.0
394,0.0
396,0.0
397,0.0
448,0.0
449,59.84812293615933
450,59.84812293615933
587,0.0
588,49.924614050585777
589,49.924614050585777
590,0.0
120,57600.0
2,5, 1, 5, 0, 1, 0.00,60.00,Thursday
7,-7.9
314,15.880408186972304
315,0.0
379,0.0
393,0.0
394,0.0
396,0.0
397,0.0
448,0.0
449,59.84812293615933
450,59.84812293615933
587,0.0
588,49.924614050585777
589,49.924614050585777
590,0.0
120,43200.0
2,5, 1, 5, 0, 2, 0.00,60.00,Thursday
7,-9.6
314,15.64003864893948
315,0.0
379,0.0
393,0.0
394,0.0
396,0.0
397,0.0
448,0.0
449,59.84812293615933
450,59.84812293615933
587,0.0
588,49.924614050585777
589,49.924614050585777
590,0.0
120,43200.0
2,5, 1, 5, 0, 3, 0.00,60.00,Thursday
7,-8.8
314,15.516902195631424
315,0.0
379,0.0
393,0.0
394,0.0
396,0.0
397,0.0
448,0.0
449,59.84812293615933
450,59.84812293615933
587,0.0
588,49.924614050585777
589,49.924614050585777
590,0.0
120,43200.0
2,5, 1, 5, 0, 4, 0.00,60.00,Thursday
7,-7.9
314,15.418703209994656
315,0.0
379,0.0
393,0.0
394,0.0
396,0.0
397,0.0
448,0.0
449,59.84812293615933
450,59.84812293615933
587,0.0
588,49.924614050585777
589,49.924614050585777
590,0.0
120,43200.0
2,5, 1, 5, 0, 5, 0.00,60.00,Thursday
7,-7.8
314,15.293246461595553
315,0.0
379,0.0
393,0.0
394,0.0
396,0.0
397,0.0
448,0.0
449,59.84812293615933
450,59.84812293615933
587,0.0
588,49.924614050585777
589,49.924614050585777
590,0.0
120,43200.0
2,5, 1, 5, 0, 6, 0.00,60.00,Thursday
7,-7.8
314,19.42243973106637
315,0.0
379,0.0
393,0.0
394,0.0
396,0.0
397,1254.3244247767689
448,0.041107585444711536
449,59.81477323518664
450,49.74216526484436
587,1701.916654375477
588,49.89831472262847
589,59.8362994249305
590,0.041107585444711536
120,6170099.95575172
2,5, 1, 5, 0, 7, 0.00,60.00,Thursday
7,-7.0
314,19.872704907931906
315,0.0
379,0.0
393,0.0
394,0.0
396,0.0
397,1161.7221123981465
448,0.046505672604166669
449,59.81215795409346
450,50.14286168692256
587,1915.7360080096144
588,49.9676054842498
589,59.831328742744407
590,0.046505672604166669
120,7098249.628834612
2,5, 1, 5, 0, 8, 0.00,60.00,Thursday
7,-6.5
314,20.12287248859799
315,0.0
379,0.0
393,0.0
394,0.0
396,0.0
397,1091.9684620978
448,0.0420269628125
449,59.87839063060828
450,50.04901483477705
587,1749.9105889984342
588,50.04122379270375
589,60.0
590,0.0420269628125
120,6652478.120394363
2,5, 1, 5, 0, 9, 0.00,60.00,Thursday
7,-7.0
314,18.215700648953516
315,0.0
379,0.0
393,0.0
394,0.0
396,0.0
397,1160.6102268791533
448,0.04999490000000001
449,59.85141710343466
450,50.1429683831734
587,2000.0
588,50.12113776089967
589,59.689092030239127
590,0.04999490000000001
120,7502400.0
2,5, 1, 5, 0,10, 0.00,60.00,Thursday
7,-7.1
314,17.948292624217527
315,0.0
379,0.0
393,0.0
394,0.0
396,0.0
397,1279.1248912539445
448,0.0499949
449,59.76736244584699