Program Version,EnergyPlus, Version 8.9.0-40101eaafd, YMD=2019.01.10 16:53
1,5,Environment Title[],Latitude[deg],Longitude[deg],Time Zone[],Elevation[m]
2,8,Day of Simulation[],Month[],Day of Month[],DST Indicator[1=yes 0=no],Hour[],StartMinute[],EndMinute[],DayType
3,5,Cumulative Day of Simulation[],Month[],Day of Month[],DST Indicator[1=yes 0=no],DayType  ! When Daily Report Variables Requested
4,2,Cumulative Days of Simulation[],Month[]  ! When Monthly Report Variables Requested
5,1,Cumulative Days of Simulation[] ! When Run Period Report Variables Requested
6,1,Calendar Year of Simulation[] ! When Annual Report Variables Requested
7,1,Environment,Site Outdoor Air Drybulb Temperature [C] !Hourly
314,1,ZONE ONE,Zone Air Temperature [C] !Hourly
315,1,ERV_1_HX,Heat Exchanger Total Heating Rate [W] !Hourly
379,1,ERV_1_FANSUPPLY,Fan Electric Power [W] !Hourly
393,1,ERV_1_FANSUPPLY,Fan Air Mass Flow Rate [kg/s] !Hourly
394,1,ERV_1_FANEXHAUST,Fan Electric Power [W] !Hourly
396,1,ERV_1_FANEXHAUST,Fan Air Mass Flow Rate [kg/s] !Hourly
397,1,RADIATOR,Baseboard Total Heating Rate [W] !Hourly
448,1,RADIATOR,Baseboard Hot Water Mass Flow Rate [kg/s] !Hourly
449,1,RADIATOR,Baseboard Water Inlet Temperature [C] !Hourly
450,1,RADIATOR,Baseboard Water Outlet Temperature [C] !Hourly
587,1,DISTRICT HEATING 1,District Heating Rate [W] !Hourly
588,1,DISTRICT HEATING 1,District Heating Inlet Temperature [C] !Hourly
589,1,DISTRICT HEATING 1,District Heating Outlet Temperature [C] !Hourly
590,1,DISTRICT HEATING 1,District Heating Mass Flow Rate [kg/s] !Hourly
120,1,DistrictHeating:Facility [J] !Hourly
End of Data Dictionary
1,ANNUAL SIM 1,  59.65,  17.95,   1.00,  61.00
2,1, 1, 1, 0, 1, 0.00,60.00,Sunday
7,4.0
314,18.131317080284405
315,0.0
379,0.0
393,0.0
394,0.0
396,0.0
397,0.0
448,0.0
449,55.0
450,55.0
587,0.0
588,45.46143873698523
589,45.46143873698523
590,0.0
120,43200.0
2,1, 1, 1, 0, 2, 0.00,60.00,Sunday
7,5.3
314,18.04852412373274
315,0.0
379,0.0
393,0.0
394,0.0
396,0.0
397,0.0
448,0.0
449,55.0
450,55.0
587,0.0
588,45.46143873698523
589,45.46143873698523
590,0.0
120,43200.0
2,1, 1, 1, 0, 3, 0.00,60.00,Sunday
7,6.2
314,18.033021511360365
315,0.0
379,0.0
393,0.0
394,0.0
396,0.0
397,0.0
448,0.0
449,55.0
450,55.0
587,0.0
588,45.46143873698523
589,45.46143873698523
590,0.0
120,43200.0
2,1, 1, 1, 0, 4, 0.00,60.00,Sunday
7,6.8
314,18.006742535035266
315,0.0
379,0.0
393,0.0
394,0.0
396,0.0
397,0.0
448,0.0
449,55.0
450,55.0
587,0.0
588,45.46143873698523
589,45.46143873698523
590,0.0
120,43200.0
2,1, 1, 1, 0, 5, 0.00,60.00,Sunday
7,7.2
314,17.96720661895517
315,0.0
379,0.0
393,0.0
394,0.0
396,0.0
397,0.0
448,0.0
449,55.0
450,55.0
587,0.0
588,45.46143873698523
589,45.46143873698523
590,0.0
120,43200.0
2,1, 1, 1, 0, 6, 0.00,60.00,Sunday
7,7.5
314,21.917698364298894
315,0.0
379,0.0
393,0.0
394,0.0
396,0.0
397,887.5036038094133
448,0.03309930209821428
449,55.00000000000001
450,46.5833640221303
587,1305.9562024390898
588,45.57119173601601
589,54.32755702683754
590,0.03309930209821428
120,4744642.328780723
2,1, 1, 1, 0, 7, 0.00,60.00,Sunday
7,7.5
314,22.10914711253912
315,0.0
379,0.0
393,0.0
394,0.0
396,0.0
397,790.0698740033952
448,0.033043504218750009
449,55.0
450,46.07589403545356
587,1279.9520870702681
588,45.73349227342034
589,55.0
590,0.033043504218750009
120,4672627.513452965
2,1, 1, 1, 0, 8, 0.00,60.00,Sunday
7,6.7
314,21.651790431039197
315,0.0
379,0.0
393,0.0
394,0.0
396,0.0
397,720.2804357022474
448,0.029996940000000004
449,55.0
450,45.73409133724145
587,1152.1988426053886
588,45.8112308324758
589,55.0
590,0.029996940000000004
120,4327915.833379398
2,1, 1, 1, 0, 9, 0.00,60.00,Sunday
7,6.0
314,21.418134411386153
315,0.0
379,0.0
393,0.0
394,0.0
396,0.0
397,741.9805714113639
448,0.029996940000000004
449,55.0
450,45.64125935870254
587,1154.9874729378337
588,45.78898174061823
589,55.0
590,0.029996940000000004
120,4424354.902576201
2,1, 1, 1, 0,10, 0.00,60.00,Sunday
7,5.2
314,19.402737249694625
315,0.0
379,0.0
393,0.0
394,0.0
396,0.0
397,0.0
448,0.0
449,54.99999999999999
450,54.99999999999999
587,0.0
588,45.775025994136949
589,45.775025994136949
590,0.0
120,252000.0
2,1, 1, 1, 0,11, 0.00,60.00,Sunday
7,5.2
314,18.946206762187047
315,0.0
379,0.0
393,0.0
394,0.0
396,0.0
397,382.71007171239867
448,0.014998470000000002
449,55.0
450,49.94230061044365
587,582.8013036514226
588,45.7215177926121
589,50.36937360053842
590,0.014998470000000002
120,2328484.693145121
2,1, 1, 1, 0,12, 0.00,60.00,Sunday
7,5.2
314,19.515104616538215
315,0.0
379,0.0
393,0.0
394,0.0
396,0.0
397,455.92057397722888
448,0.017998164000000005
449,55.0
450,49.02265564575704
587,708.5496112923847
588,45.57592753372566
589,51.2266624427384
590,0.017998164000000005
120,2802778.600652585
2,1, 1, 1, 0,13, 0.00,60.00,Sunday
7,5.2
314,20.766316043624174
315,0.0
379,0.0
393,0.0
394,0.0
396,0.0
397,783.2741783199533
448,0.029996940000000004
449,55.0
450,45.39765521604552
587,1190.0409068904294
588,45.5093038119268
589,55.0
590,0.029996940000000004
120,4586547.264805546
2,1, 1, 1, 0,14, 0.00,60.00,Sunday
7,4.6
314,20.97922017403205
315,0.0
379,0.0
393,0.0
394,0.0
396,0.0
397,978.3704790721133
448,0.04366742046875
449,55.0
450,46.22402249454428
587,1696.564767811894
588,45.71116615165411
589,55.00000000000001
590,0.04366742046875
120,6374033.164122818
2,1, 1, 1, 0,15, 0.00,60.00,Sunday
7,4.1
314,20.23374944059267
315,0.0
379,0.0
393,0.0
394,0.0
396,0.0
397,716.2137608764435
448,0.029996940000000004
449,55.00000000000001
450,45.49006271416331
587,1154.4819948486106
588,45.793014674884407
589,55.0
590,0.029996940000000004
120,4415335.181454998
2,1, 1, 1, 0,16, 0.00,60.00,Sunday
7,3.5
314,20.00231395682383
315,0.0
379,0.0
393,0.0
394,0.0
396,0.0
397,749.8112238240495
448,0.029996940000000004
449,55.00000000000001
450,45.350239635961148
587,1167.1679283857663
588,45.69179940021241
589,55.0
590,0.029996940000000004
120,4425004.542188759
2,1, 1, 1, 0,17, 0.00,60.00,Sunday
7,3.2
314,18.796373292933788
315,0.0
379,0.0
393,0.0
394,0.0
396,0.0
397,0.0
448,0.0
449,55.00000000000001
450,55.00000000000001
587,0.0
588,45.64504141552334
589,45.64504141552334
590,0.0
120,230400.0
2,1, 1, 1, 0,18, 0.00,60.00,Sunday
7,2.9
314,18.69019441773271
315,0.0
379,0.0
393,0.0
394,0.0
396,0.0
397,0.0
448,0.0
449,55.00000000000001
450,55.00000000000001
587,0.0
588,45.64504141552334
589,45.64504141552334
590,0.0
120,324000.0
2,1, 1, 1, 0,19, 0.00,60.00,Sunday
7,2.6
314,19.525706627773599
315,0.0
379,0.0
393,0.0
394,0.0
396,0.0
397,157.6281805894974
448,0.005999388000000001
449,55.00000000000001
450,52.99771659656861
587,235.14344995370502
588,45.61543242889411
589,47.490714890935709
590,0.005999388000000001
120,1148916.4198333382
2,1, 1, 1, 0,20, 0.00,60.00,Sunday
7,2.5
314,20.52072828268534
315,0.0
379,0.0
393,0.0
394,0.0
396,0.0
397,399.00981718919459
448,0.014998470000000002
449,55.00000000000001
450,50.142626264967358
587,590.5998011881404
588,45.57943227899184
589,50.28950932968249
590,0.014998470000000002
120,2378159.284277306
2,1, 1, 1, 0,21, 0.00,60.00,Sunday
7,2.4
314,19.30628043101294
315,0.0
379,0.0
393,0.0
394,0.0
396,0.0
397,0.0
448,0.0
449,55.00000000000001
450,55.00000000000001
587,0.0
588,45.562736737310839
589,45.562736737310839
590,0.0
120,216000.0
2,1, 1, 1, 0,22, 0.00,60.00,Sunday
7,2.3
314,19.01980249216146
315,0.0
379,0.0
393,0.0
394,0.0
396,0.0
397,0.0
448,0.0
449,55.00000000000001
450,55.00000000000001
587,0.0
588,45.562736737310839
589,45.562736737310839
590,0.0
120,244800.0
2,1, 1, 1, 0,23, 0.00,60.00,Sunday
7,2.3
314,18.591291412053474
315,0.0
379,0.0
393,0.0
394,0.0
396,0.0
397,0.0
448,0.0
449,55.00000000000001
450,55.00000000000001
587,0.0
588,45.562736737310839
589,45.562736737310839
590,0.0
120,187200.0
2,1, 1, 1, 0,24, 0.00,60.00,Sunday
7,2.2
314,18.321708127637974
315,0.0
379,0.0
393,0.0
394,0.0
396,0.0
397,0.0
448,0.0
449,55.00000000000001
450,55.00000000000001
587,0.0
588,45.562736737310839
589,45.562736737310839
590,0.0
120,86400.0
2,2, 1, 2, 0, 1, 0.00,60.00,Monday
7,2.2
314,17.804773230656929
315,0.0
379,0.0
393,0.0
394,0.0
396,0.0
397,0.0
448,0.0
449,55.00000000000001
450,55.00000000000001
587,0.0
588,45.562736737310839
589,45.562736737310839
590,0.0
120,43200.0
2,2, 1, 2, 0, 2, 0.00,60.00,Monday
7,2.2
314,17.651898078024155
315,0.0
379,0.0
393,0.0
394,0.0
396,0.0
397,0.0
448,0.0
449,55.00000000000001
450,55.00000000000001
587,0.0
588,45.562736737310839
589,45.562736737310839
590,0.0
120,43200.0
2,2, 1, 2, 0, 3, 0.00,60.00,Monday
7,2.1
314,17.563673351207869
315,0.0
379,0.0
393,0.0
394,0.0
396,0.0
397,0.0
448,0.0
449,55.00000000000001
450,55.00000000000001
587,0.0
588,45.562736737310839
589,45.562736737310839
590,0.0
120,43200.0
2,2, 1, 2, 0, 4, 0.00,60.00,Monday
7,2.1
314,17.49467908892718
315,0.0
379,0.0
393,0.0
394,0.0
396,0.0
397,0.0
448,0.0
449,55.00000000000001
450,55.00000000000001
587,0.0
588,45.562736737310839
589,45.562736737310839
590,0.0
120,43200.0
2,2, 1, 2, 0, 5, 0.00,60.00,Monday
7,2.1
314,17.413531440051867
315,0.0
379,0.0
393,0.0
394,0.0
396,0.0
397,0.0
448,0.0
449,55.00000000000001
450,55.00000000000001
587,0.0
588,45.562736737310839
589,45.562736737310839
590,0.0
120,43200.0
2,2, 1, 2, 0, 6, 0.00,60.00,Monday
7,2.0
314,21.465135295864337
315,0.0
379,0.0
393,0.0
394,0.0
396,0.0
397,1008.3765667470798
448,0.03761893033482143
449,55.00000000000001
450,45.93973911688351
587,1469.536639720928
588,45.66444509830114
589,55.0
590,0.03761893033482143
120,5333531.902995341
2,2, 1, 2, 0, 7, 0.00,60.00,Monday
7,2.0
314,21.77229876674686
315,0.0
379,0.0
393,0.0
394,0.0
396,0.0
397,1072.1504701457316
448,0.049994899999999998
449,55.00000000000001
450,46.65088712419796
587,1887.563771988771
588,45.96809076426743
589,55.0
590,0.049994899999999998
120,6996829.5791595759
2,2, 1, 2, 0, 8, 0.00,60.00,Monday
7,2.0
314,21.2563576812007
315,0.0
379,0.0
393,0.0
394,0.0
396,0.0
397,705.241012595978
448,0.029996940000000004
449,55.00000000000001
450,45.64246881056136
587,1115.2815736733533
588,46.10577079863123
589,55.0
590,0.029996940000000004
120,4367813.665224072
2,2, 1, 2, 0, 9, 0.00,60.00,Monday
7,1.9
314,18.43327463692045
315,0.0
379,0.0
393,0.0
394,0.0
396,0.0
397,311.46278224894726
448,0.016361967272727274
449,55.0
450,49.407203484238539
587,621.0972245980181
588,45.94059815388549
589,50.89381410568771
590,0.016361967272727274
120,2538350.008552866
2,2, 1, 2, 0,10, 0.00,60.00,Monday
7,1.9
314,19.671558146926797
315,0.0
379,0.0
393,0.0
394,0.0
396,0.0
397,810.4129971530754
448,0.029996940000000004
449,55.00000000000001
450,45.042874665102257
587,1167.414215271196
588,45.6898342301736
589,54.999999999999989
590,0.029996940000000004
120,4433091.174976306
2,2, 1, 2, 0,11, 0.00,60.00,Monday
7,1.9
314,19.99958530389539
315,0.0
379,0.0
393,0.0
394,0.0
396,0.0
397,862.7934289328687
448,0.03499643000000001
449,55.00000000000001
450,45.490959760447328
587,1374.0886286939167
588,45.6066607090987
589,55.0
590,0.03499643000000001
120,5141119.063298101
2,2, 1, 2, 0,12, 0.00,60.00,Monday
7,1.9
314,20.083546999604026
315,0.0
379,0.0
393,0.0
394,0.0
396,0.0
397,827.1812018665438
448,0.03327785531250001
449,55.00000000000001
450,45.4789847687206
587,1310.2959622476403
588,45.58054602525651
589,55.0
590,0.03327785531250001
120,4954665.464091505
2,2, 1, 2, 0,13, 0.00,60.00,Monday
7,1.9
314,20.079735018863287
315,0.0
379,0.0
393,0.0
394,0.0
396,0.0
397,801.5632692071717
448,0.032184216875000008
449,55.00000000000001
450,45.45588201738529
587,1269.3519509836603
588,45.56480042646118
589,55.0
590,0.032184216875000008
120,4864867.023541178
2,2, 1, 2, 0,14, 0.00,60.00,Monday
7,1.6
314,20.0832862181636
315,0.0
379,0.0
393,0.0
394,0.0
396,0.0
397,862.1937979374843
448,0.035308898125
449,55.00000000000001
450,45.632249117740609
587,1389.920050658782
588,45.58289828917787
589,55.0
590,0.035308898125
120,5255712.182371615
2,2, 1, 2, 0,15, 0.00,60.00,Monday
7,1.3
314,20.086680233684797
315,0.0
379,0.0
393,0.0
394,0.0
396,0.0
397,890.2782249843334
448,0.03687123875000001
449,55.00000000000001
450,45.72731778056329
587,1442.4116376609388
588,45.641378569039968
589,55.00000000000001
590,0.03687123875000001
120,5437481.89557938
2,2, 1, 2, 0,16, 0.00,60.00,Monday
7,1.0
314,20.086814335162999
315,0.0
379,0.0
393,0.0
394,0.0
396,0.0
397,917.4342620281058
448,0.03835546234375001
449,55.00000000000001
450,45.81168529883449
587,1488.9986558336584
588,45.71298843527964
589,55.00000000000001
590,0.03835546234375001
120,5569195.16100117
2,2, 1, 2, 0,17, 0.00,60.00,Monday
7,0.9
314,20.086481252288786
315,0.0
379,0.0
393,0.0
394,0.0
396,0.0
397,910.4455061256483
448,0.03804299421875001
449,55.00000000000001
450,45.80070874796279
587,1467.6267889236155
588,45.771127758795888
589,55.00000000000001
590,0.03804299421875001
120,5513856.440125016
2,2, 1, 2, 0,18, 0.00,60.00,Monday
7,0.7
314,20.074079327484083
315,0.0
379,0.0
393,0.0
394,0.0
396,0.0
397,790.3231751916259
448,0.03202798281250001
449,55.00000000000001
450,45.50933456485258
587,1237.821072484636
588,45.754373865188949
589,55.0
590,0.03202798281250001
120,4816155.86094469
2,2, 1, 2, 0,19, 0.00,60.00,Monday
7,0.6
314,20.511223499741914
315,0.0
379,0.0
393,0.0
394,0.0
396,0.0
397,453.1808410987893
448,0.017998164000000005
449,55.00000000000001
450,49.24018972269625
587,699.9489683096613
588,45.6964145159219
589,51.27852810531592
590,0.017998164000000005
120,2872616.2859147808
2,2, 1, 2, 0,20, 0.00,60.00,Monday
7,0.6
314,20.48522748455135
315,0.0
379,0.0
393,0.0
394,0.0
396,0.0
397,367.5194332085283
448,0.014998470000000002
449,55.00000000000001
450,50.21991995921511
587,585.5977623332781
588,45.656239049544719
589,50.326406633854578
590,0.014998470000000002
120,2396151.944399801
2,2, 1, 2, 0,21, 0.00,60.00,Monday
7,0.6
314,19.10001863097822
315,0.0
379,0.0
393,0.0
394,0.0
396,0.0
397,0.0
448,0.0
449,55.00000000000001
450,55.00000000000001
587,0.0
588,45.64432886731079
589,45.64432886731079
590,0.0
120,259200.0
2,2, 1, 2, 0,22, 0.00,60.00,Monday
7,0.6
314,18.902676016232755
315,0.0
379,0.0
393,0.0
394,0.0
396,0.0
397,0.0
448,0.0
449,55.00000000000001
450,55.00000000000001
587,0.0
588,45.64432886731078
589,45.64432886731078
590,0.0
120,324000.0
2,2, 1, 2, 0,23, 0.00,60.00,Monday
7,0.8
314,18.493946961971294
315,0.0
379,0.0
393,0.0
394,0.0
396,0.0
397,0.0
448,0.0
449,55.00000000000001
450,55.00000000000001
587,0.0
588,45.64432886731078
589,45.64432886731078
590,0.0
120,216000.0
2,2, 1, 2, 0,24, 0.00,60.00,Monday
7,0.9
314,18.223628730378608
315,0.0
379,0.0
393,0.0
394,0.0
396,0.0
397,0.0
448,0.0
449,55.00000000000001
450,55.00000000000001
587,0.0
588,45.64432886731078
589,45.64432886731078
590,0.0
120,57600.0
2,3, 1, 3, 0, 1, 0.00,60.00,Tuesday
7,1.1
314,17.73230753569008
315,0.0
379,0.0
393,0.0
394,0.0
396,0.0
397,0.0
448,0.0
449,55.00000000000001
450,55.00000000000001
587,0.0
588,45.64432886731078
589,45.64432886731078
590,0.0
120,43200.0
2,3, 1, 3, 0, 2, 0.00,60.00,Tuesday
7,0.9
314,17.58177484120989
315,0.0
379,0.0
393,0.0
394,0.0
396,0.0
397,0.0
448,0.0
449,55.00000000000001
450,55.00000000000001
587,0.0
588,45.64432886731078
589,45.64432886731078
590,0.0
120,43200.0
2,3, 1, 3, 0, 3, 0.00,60.00,Tuesday
7,0.6
314,17.507060643798345
315,0.0
379,0.0
393,0.0
394,0.0
396,0.0
397,0.0
448,0.0
449,55.00000000000001
450,55.00000000000001
587,0.0
588,45.64432886731078
589,45.64432886731078
590,0.0
120,43200.0
2,3, 1, 3, 0, 4, 0.00,60.00,Tuesday
7,0.4
314,17.39243601047081
315,0.0
379,0.0
393,0.0
394,0.0
396,0.0
397,0.0
448,0.0
449,55.00000000000001
450,55.00000000000001
587,0.0
588,45.64432886731078
589,45.64432886731078
590,0.0
120,43200.0
2,3, 1, 3, 0, 5, 0.00,60.00,Tuesday
7,0.6
314,17.311258631018676
315,0.0
379,0.0
393,0.0
394,0.0
396,0.0
397,0.0
448,0.0
449,55.00000000000001
450,55.00000000000001
587,0.0
588,45.64432886731078
589,45.64432886731078
590,0.0
120,43200.0
2,3, 1, 3, 0, 6, 0.00,60.00,Tuesday
7,0.9
314,21.438174251731817
315,0.0
379,0.0
393,0.0
394,0.0
396,0.0
397,1043.0207161251496
448,0.039058515625
449,55.00000000000001
450,46.00334089130279
587,1513.0447680564407
588,45.74207126130571
589,55.00000000000001
590,0.039058515625
120,5490161.165003186
2,3, 1, 3, 0, 7, 0.00,60.00,Tuesday
7,1.1
314,21.710812548362463
315,0.0
379,0.0
393,0.0
394,0.0
396,0.0
397,1068.4533508703307
448,0.049994899999999998
449,55.00000000000001
450,46.64036876700832
587,1875.3598021506205
588,46.02651142139239
589,54.999999999999989
590,0.049994899999999998
120,6952895.287742234
2,3, 1, 3, 0, 8, 0.00,60.00,Tuesday
7,0.9
314,21.998263644384367
315,0.0
379,0.0
393,0.0
394,0.0
396,0.0
397,992.9815768124937
448,0.044097064140625
449,55.0
450,46.414575385095819
587,1604.6131795469837
588,46.297518309042377
589,55.0
590,0.044097064140625
120,6129407.446369141
2,3, 1, 3, 0, 9, 0.00,60.00,Tuesday
7,0.8
314,19.85986554694624
315,0.0
379,0.0
393,0.0
394,0.0
396,0.0
397,828.4733557103496
448,0.04285277142857142
449,54.99999999999999
450,47.49209713267834
587,1555.5877614506549
588,46.316909773184068
589,53.76020394723817
590,0.04285277142857142
120,5902515.941222358
2,3, 1, 3, 0,10, 0.00,60.00,Tuesday
7,0.6
314,18.35441447649712
315,0.0
379,0.0
393,0.0
394,0.0
396,0.0
397,460.97294257500496
448,0.019997960000000003
449,55.0
450,48.18209175242467
587,739.5343480970411
588,46.207729978254238
589,52.10540937214128
590,0.019997960000000003
120,2892723.6531493479
2,3, 1, 3, 0,11, 0.00,60.00,Tuesday
7,1.1
314,18.527892519042657
315,0.0
379,0.0
393,0.0
394,0.0
396,0.0
397,526.4176633219354
448,0.019997960000000003
449,55.0
450,48.19470731395715
587,762.7807257423567
588,45.87503629656165
589,51.9581830707382
590,0.019997960000000003
120,2940410.6126724847
2,3, 1, 3, 0,12, 0.00,60.00,Tuesday
7,1.6
314,19.824650092374954
315,0.0
379,0.0
393,0.0
394,0.0
396,0.0
397,810.460998245381
448,0.029996940000000004
449,55.0
450,45.15282537207925
587,1171.709389135778
588,45.65556481758324
589,55.0
590,0.029996940000000004
120,4455753.800888801
2,3, 1, 3, 0,13, 0.00,60.00,Tuesday
7,2.1
314,20.08363058962449
315,0.0
379,0.0
393,0.0
394,0.0
396,0.0
397,778.5947237813938
448,0.031090578437500007
449,55.0
450,45.450885921105818
587,1223.5777294826134
588,45.58513014049749
589,55.00000000000001
590,0.031090578437500007
120,4700079.826137409
2,3, 1, 3, 0,14, 0.00,60.00,Tuesday
7,1.7
314,20.086595479691625
315,0.0
379,0.0
393,0.0
394,0.0
396,0.0
397,866.6405361615067
448,0.03538701515625001
449,55.0
450,45.61666188538775
587,1391.4691725334826
588,45.593218668372887
589,55.0
590,0.03538701515625001
120,5261289.021120537
2,3, 1, 3, 0,15, 0.00,60.00,Tuesday
7,1.4
314,20.08525239795296
315,0.0
379,0.0
393,0.0
394,0.0
396,0.0
397,887.8962077597748
448,0.03655877062500001
449,55.0
450,45.68493288601647
587,1430.8119072600507
588,45.63729287802397
589,55.0
590,0.03655877062500001
120,5395722.866136182
2,3, 1, 3, 0,16, 0.00,60.00,Tuesday
7,1.0
314,20.086887091487239
315,0.0
379,0.0
393,0.0
394,0.0
396,0.0
397,906.0341650111515
448,0.037574292031250008
449,55.0
450,45.74439358422876
587,1462.376766647146
588,45.689395791837458
589,55.0
590,0.037574292031250008
120,5473356.3599297259
2,3, 1, 3, 0,17, 0.00,60.00,Tuesday
7,1.0
314,20.08702145862993
315,0.0
379,0.0
393,0.0
394,0.0
396,0.0
397,891.0901592919624
448,0.03687123875000001
449,55.0
450,45.71677601336933
587,1429.1528584223202
588,45.72744205221959
589,55.0
590,0.03687123875000001
120,5375350.290320353
2,3, 1, 3, 0,18, 0.00,60.00,Tuesday
7,1.0
314,20.071441512139285
315,0.0
379,0.0
393,0.0
394,0.0
396,0.0
397,756.8972668983356
448,0.030309408125000008
449,55.0
450,45.40177789866134
587,1178.9566103970728
588,45.69471565099996
589,55.0
590,0.030309408125000008
120,4604243.797429462
2,3, 1, 3, 0,19, 0.00,60.00,Tuesday
7,1.0
314,20.597711472480119
315,0.0
379,0.0
393,0.0
394,0.0
396,0.0
397,456.1795775287213
448,0.017998164000000005
449,55.0
450,49.23325369035588
587,704.5598367084959
588,45.63499420610034
589,51.25389608792959
590,0.017998164000000005
120,2889215.4121505857
2,3, 1, 3, 0,20, 0.00,60.00,Tuesday
7,1.0
314,20.56793686608224
315,0.0
379,0.0
393,0.0
394,0.0
396,0.0
397,366.7621735424891
448,0.014998470000000002
449,55.0
450,50.21785995661156
587,588.7978608535959
588,45.60621464308519
589,50.30191462405703
590,0.014998470000000002
120,2407672.299072945
2,3, 1, 3, 0,21, 0.00,60.00,Tuesday
7,1.0
314,19.241106226032608
315,0.0
379,0.0
393,0.0
394,0.0
396,0.0
397,0.0
448,0.0
449,55.0
450,55.0
587,0.0
588,45.59730608003831
589,45.59730608003831
590,0.0
120,259200.0
2,3, 1, 3, 0,22, 0.00,60.00,Tuesday
7,1.0
314,19.043856300466527
315,0.0
379,0.0
393,0.0
394,0.0
396,0.0
397,0.0
448,0.0
449,55.0
450,55.0
587,0.0
588,45.5973060800383
589,45.5973060800383
590,0.0
120,324000.0
2,3, 1, 3, 0,23, 0.00,60.00,Tuesday
7,1.4
314,18.751055498964836
315,0.0
379,0.0
393,0.0
394,0.0
396,0.0
397,0.0
448,0.0
449,55.0
450,55.0
587,0.0
588,45.5973060800383
589,45.5973060800383
590,0.0
120,216000.0
2,3, 1, 3, 0,24, 0.00,60.00,Tuesday
7,1.7
314,18.444273299109743
315,0.0
379,0.0
393,0.0
394,0.0
396,0.0
397,0.0
448,0.0
449,55.0
450,55.0
587,0.0
588,45.5973060800383
589,45.5973060800383
590,0.0
120,57600.0
2,4, 1, 4, 0, 1, 0.00,60.00,Wednesday
7,2.1
314,17.88257411798528
315,0.0
379,0.0
393,0.0
394,0.0
396,0.0
397,0.0
448,0.0
449,55.0
450,55.0
587,0.0
588,45.5973060800383
589,45.5973060800383
590,0.0
120,43200.0
2,4, 1, 4, 0, 2, 0.00,60.00,Wednesday
7,1.4
314,17.70900865980937
315,0.0
379,0.0
393,0.0
394,0.0
396,0.0
397,0.0
448,0.0
449,55.0
450,55.0
587,0.0
588,45.5973060800383
589,45.5973060800383
590,0.0
120,43200.0
2,4, 1, 4, 0, 3, 0.00,60.00,Wednesday
7,0.8
314,17.632338655606579
315,0.0
379,0.0
393,0.0
394,0.0
396,0.0
397,0.0
448,0.0
449,55.0
450,55.0
587,0.0
588,45.5973060800383
589,45.5973060800383
590,0.0
120,43200.0
2,4, 1, 4, 0, 4, 0.00,60.00,Wednesday
7,0.1
314,17.522852507580035
315,0.0
379,0.0
393,0.0
394,0.0
396,0.0
397,0.0
448,0.0
449,55.0
450,55.0
587,0.0
588,45.5973060800383
589,45.5973060800383
590,0.0
120,43200.0
2,4, 1, 4, 0, 5, 0.00,60.00,Wednesday
7,-0.3
314,17.405177658983566
315,0.0
379,0.0
393,0.0
394,0.0
396,0.0
397,0.0
448,0.0
449,55.0
450,55.0
587,0.0
588,45.5973060800383
589,45.5973060800383
590,0.0
120,43200.0
2,4, 1, 4, 0, 6, 0.00,60.00,Wednesday
7,-0.7
314,21.458971352045606
315,0.0
379,0.0
393,0.0
394,0.0
396,0.0
397,1025.8587417968467
448,0.03835546234375001
449,55.00000000000001
450,45.97254853065601
587,1492.8977664051768
588,45.69789408222357
589,55.00000000000001
590,0.03835546234375001
120,5417631.959058637
2,4, 1, 4, 0, 7, 0.00,60.00,Wednesday
7,-1.1
314,21.691642131394027
315,0.0
379,0.0
393,0.0
394,0.0
396,0.0
397,1069.5231700898846
448,0.049994899999999998
449,55.0
450,46.63828591440026
587,1882.3775926765684
588,45.99291716866698
589,54.999999999999989
590,0.049994899999999998
120,6978159.333635646
2,4, 1, 4, 0, 8, 0.00,60.00,Wednesday
7,-1.4
314,21.999364978561844
315,0.0
379,0.0
393,0.0
394,0.0
396,0.0
397,1006.5202851853235
448,0.04476105890625
449,55.0
450,46.44349601753308
587,1631.0086336252903
588,46.28614413650019
589,55.0
590,0.04476105890625
120,6224431.081051044
2,4, 1, 4, 0, 9, 0.00,60.00,Wednesday
7,-1.8
314,19.56893932156334
315,0.0
379,0.0
393,0.0
394,0.0
396,0.0
397,815.1441538144613
448,0.04285277142857142
449,54.999999999999989
450,47.43642825081775
587,1557.9794181843204
588,46.3051834014795
589,53.759926124925367
590,0.04285277142857142
120,5911125.905463554
2,4, 1, 4, 0,10, 0.00,60.00,Wednesday
7,-2.1
314,20.01971640262208
315,0.0
379,0.0
393,0.0
394,0.0
396,0.0
397,1037.446372688201
448,0.043589303437500007
449,54.99999999999999
450,45.90374210195254
587,1602.3241493776172
588,46.20710209271003
589,55.00000000000001
590,0.043589303437500007
120,5998766.937759422
2,4, 1, 4, 0,11, 0.00,60.00,Wednesday
7,-2.4
314,20.096094804210794
315,0.0
379,0.0
393,0.0
394,0.0
396,0.0
397,933.1622402810585
448,0.03858981343750001
449,54.99999999999999
450,45.74593760265839
587,1436.5891825260528
588,46.094447063875019
589,55.00000000000001
590,0.03858981343750001
120,5366121.05709379
2,4, 1, 4, 0,12, 0.00,60.00,Wednesday
7,-2.6
314,20.094672223874367
315,0.0
379,0.0
393,0.0
394,0.0
396,0.0
397,951.7244163006748
448,0.03983968593750001
449,55.0
450,45.82928133982212
587,1497.9555995114245
588,46.00531697705595
589,55.00000000000001
590,0.03983968593750001
120,5630240.158241128
2,4, 1, 4, 0,13, 0.00,60.00,Wednesday
7,-2.9
314,20.093925011007454
315,0.0
379,0.0
393,0.0
394,0.0
396,0.0
397,954.5450171279716
448,0.0401521540625
449,55.0
450,45.86684987183244
587,1515.4861367018384
588,45.97085424984909
589,55.00000000000001
590,0.0401521540625
120,5750950.092126618
2,4, 1, 4, 0,14, 0.00,60.00,Wednesday
7,-3.5
314,20.09843820771331
315,0.0
379,0.0
393,0.0
394,0.0
396,0.0
397,1026.84582129556
448,0.04437047375
449,55.0
450,46.09651264748884
587,1667.9829885641498
588,46.00708801196049
589,55.0
590,0.04437047375
120,6256738.758830939
2,4, 1, 4, 0,15, 0.00,60.00,Wednesday
7,-4.2
314,20.097410571726408
315,0.0
379,0.0
393,0.0
394,0.0
396,0.0
397,1072.2772327027774
448,0.047182686875
449,55.0
450,46.24850129155031
587,1753.7513250506179
588,46.10827479031976
589,55.0
590,0.047182686875
120,6558304.770182224
2,4, 1, 4, 0,16, 0.00,60.00,Wednesday
7,-4.8
314,20.09595972312619
315,0.0
379,0.0
393,0.0
394,0.0
396,0.0
397,1116.3162357624492
448,0.0499949
449,55.0
450,46.39310542897343
587,1831.8591096688513
588,46.23474760950103
589,55.0
590,0.0499949
120,6803492.794807864
2,4, 1, 4, 0,17, 0.00,60.00,Wednesday
7,-5.1
314,20.076065732948075
315,0.0
379,0.0
393,0.0
394,0.0
396,0.0
397,1114.35396943018
448,0.0499949
449,55.0
450,46.39579956508444
587,1810.6417899502394
588,46.33631234294192
589,54.99999999999999
590,0.0499949
120,6748710.443820862
2,4, 1, 4, 0,18, 0.00,60.00,Wednesday
7,-5.5
314,20.085188676429703
315,0.0
379,0.0
393,0.0
394,0.0
396,0.0
397,1016.1476633403432
448,0.04413612265625
449,55.0
450,46.1014750842726
587,1600.6262827492092
588,46.32455099351576
589,54.999999999999989
590,0.04413612265625
120,6122254.617897153
2,4, 1, 4, 0,19, 0.00,60.00,Wednesday
7,-5.8
314,20.621683836044239
315,0.0
379,0.0
393,0.0
394,0.0
396,0.0
397,563.6713625231329
448,0.022497705000000004
449,54.99999999999999
450,47.79970632182308
587,829.1783498884148
588,46.191135175599459
589,52.803702973943739
590,0.022497705000000004
120,3337842.0595982938
2,4, 1, 4, 0,20, 0.00,60.00,Wednesday
7,-5.9
314,20.719487431102907
315,0.0
379,0.0
393,0.0
394,0.0
396,0.0
397,473.31141316529365
448,0.019997960000000003
449,54.999999999999989
450,48.696256130216088
587,749.268014999698
588,46.021297664549667
589,51.99663476505479
590,0.019997960000000003
120,2985364.853998913
2,4, 1, 4, 0,21, 0.00,60.00,Wednesday
7,-6.1
314,18.911787449439577
315,0.0
379,0.0
393,0.0
394,0.0
396,0.0
397,0.0
448,0.0
449,54.999999999999989
450,54.999999999999989
587,0.0
588,45.9899042951644
589,45.9899042951644
590,0.0
120,259200.0
2,4, 1, 4, 0,22, 0.00,60.00,Wednesday
7,-6.2
314,18.613705979628266
315,0.0
379,0.0
393,0.0
394,0.0
396,0.0
397,0.0
448,0.0
449,54.999999999999989
450,54.999999999999989
587,0.0
588,45.98990429516439
589,45.98990429516439
590,0.0
120,324000.0
2,4, 1, 4, 0,23, 0.00,60.00,Wednesday
7,-6.2
314,18.216581708016478
315,0.0
379,0.0
393,0.0
394,0.0
396,0.0
397,0.0
448,0.0
449,54.99999999999999
450,54.99999999999999
587,0.0
588,45.9899042951644
589,45.9899042951644
590,0.0
120,216000.0
2,4, 1, 4, 0,24, 0.00,60.00,Wednesday
7,-6.3
314,17.779094906003129
315,0.0
379,0.0
393,0.0
394,0.0
396,0.0
397,0.0
448,0.0
449,54.99999999999999
450,54.99999999999999
587,0.0
588,45.9899042951644
589,45.9899042951644
590,0.0
120,57600.0
2,5, 1, 5, 0, 1, 0.00,60.00,Thursday
7,-6.3
314,17.305593325050255
315,0.0
379,0.0
393,0.0
394,0.0
396,0.0
397,0.0
448,0.0
449,54.99999999999999
450,54.99999999999999
587,0.0
588,45.9899042951644
589,45.9899042951644
590,0.0
120,43200.0
2,5, 1, 5, 0, 2, 0.00,60.00,Thursday
7,-6.4
314,17.1474679954961
315,0.0
379,0.0
393,0.0
394,0.0
396,0.0
397,0.0
448,0.0
449,54.99999999999999
450,54.99999999999999
587,0.0
588,45.9899042951644
589,45.9899042951644
590,0.0
120,43200.0
2,5, 1, 5, 0, 3, 0.00,60.00,Thursday
7,-6.5
314,17.03429924598594
315,0.0
379,0.0
393,0.0
394,0.0
396,0.0
397,0.0
448,0.0
449,54.99999999999999
450,54.99999999999999
587,0.0
588,45.9899042951644
589,45.9899042951644
590,0.0
120,43200.0
2,5, 1, 5, 0, 4, 0.00,60.00,Thursday
7,-6.6
314,16.90901480883231
315,0.0
379,0.0
393,0.0
394,0.0
396,0.0
397,0.0
448,0.0
449,54.99999999999999
450,54.99999999999999
587,0.0
588,45.9899042951644
589,45.9899042951644
590,0.0
120,43200.0
2,5, 1, 5, 0, 5, 0.00,60.00,Thursday
7,-6.4
314,16.797289051187698
315,0.0
379,0.0
393,0.0
394,0.0
396,0.0
397,0.0
448,0.0
449,54.99999999999999
450,54.99999999999999
587,0.0
588,45.9899042951644
589,45.9899042951644
590,0.0
120,43200.0
2,5, 1, 5, 0, 6, 0.00,60.00,Thursday
7,-6.3
314,21.167731133949819
315,0.0
379,0.0
393,0.0
394,0.0
396,0.0
397,1212.0479827084196
448,0.04706250682692308
449,54.99999999999997
450,46.31929848409259
587,1760.0466655060563
588,46.05775299236277
589,54.99999999999998
590,0.04706250682692308
120,6379367.995821803
2,5, 1, 5, 0, 7, 0.00,60.00,Thursday
7,-6.1
314,21.075350658313519
315,0.0
379,0.0
393,0.0
394,0.0
396,0.0
397,1034.7747285707437
448,0.049994899999999998
449,54.999999999999989
450,46.52906101707134
587,1822.8850221927719
588,46.277705479615168
589,55.0
590,0.049994899999999998
120,6763986.079893979
2,5, 1, 5, 0, 8, 0.00,60.00,Thursday
7,-5.8
314,21.758705393616027
315,0.0
379,0.0
393,0.0
394,0.0
396,0.0
397,1120.6454044579702
448,0.0499949
449,54.99999999999999
450,46.58011304682093
587,1791.7920356938914
588,46.42654294753511
589,55.0
590,0.0499949
120,6803251.32849801
2,5, 1, 5, 0, 9, 0.00,60.00,Thursday
7,-5.6
314,19.353185043492944
315,0.0
379,0.0
393,0.0
394,0.0
396,0.0
397,966.2803658433724
448,0.0499949
449,54.99999999999999
450,46.24043323742099
587,1781.1196153482515
588,46.47762969147232
589,54.99999999999999
590,0.0499949
120,6714430.6152537059
2,5, 1, 5, 0,10, 0.00,60.00,Thursday
7,-5.3
314,19.324583424928794
315,0.0
379,0.0
393,0.0
394,0.0
396,0.0
397,1166.6874510153632
448,0.0499949
449,55.0
450,45.97160420267696
587,1817.5983584528487
588,46.30301220294091
589,55.0
590,0.0499949