Program Version,EnergyPlus, Version 8.9.0-40101eaafd, YMD=2018.11.20 16:28
1,5,Environment Title[],Latitude[deg],Longitude[deg],Time Zone[],Elevation[m]
2,8,Day of Simulation[],Month[],Day of Month[],DST Indicator[1=yes 0=no],Hour[],StartMinute[],EndMinute[],DayType
3,5,Cumulative Day of Simulation[],Month[],Day of Month[],DST Indicator[1=yes 0=no],DayType  ! When Daily Report Variables Requested
4,2,Cumulative Days of Simulation[],Month[]  ! When Monthly Report Variables Requested
5,1,Cumulative Days of Simulation[] ! When Run Period Report Variables Requested
6,1,Calendar Year of Simulation[] ! When Annual Report Variables Requested
7,1,Environment,Site Outdoor Air Drybulb Temperature [C] !Hourly
8,1,ZONE ONE LIGHTS,Lights Electric Energy [J] !Hourly
167,1,ZONE ONE,Zone Air Temperature [C] !Hourly
168,1,RADIATOR,Baseboard Total Heating Rate [W] !Hourly
231,1,RADIATOR,Baseboard Hot Water Mass Flow Rate [kg/s] !Hourly
232,1,RADIATOR,Baseboard Water Inlet Temperature [C] !Hourly
233,1,RADIATOR,Baseboard Water Outlet Temperature [C] !Hourly
382,1,DISTRICT HEATING 1,District Heating Rate [W] !Hourly
383,1,DISTRICT HEATING 1,District Heating Inlet Temperature [C] !Hourly
384,1,DISTRICT HEATING 1,District Heating Outlet Temperature [C] !Hourly
385,1,DISTRICT HEATING 1,District Heating Mass Flow Rate [kg/s] !Hourly
347,1,DistrictHeating:Facility [J] !Hourly
End of Data Dictionary
1,ANNUAL SIM 1,  59.65,  17.95,   1.00,  61.00
2,1, 1, 1, 0, 1, 0.00,60.00,Sunday
7,3.25
8,180000.0
167,20.061440724154357
168,766.2250144188505
231,0.0091592219140625
232,54.999999999755718
233,23.665574568211587
382,1199.1979993501434
383,23.67407584336961
384,55.0
385,0.0091592219140625
347,4317112.797660516
2,1, 1, 1, 0, 2, 0.00,60.00,Sunday
7,4.758333333333334
8,180000.0
167,20.056273464125874
168,701.3506040566243
231,0.008353233169759113
232,54.999999999780097
233,23.528091286970594
382,1093.5941899050326
383,23.676181002425623
384,55.0
385,0.008353233169759113
347,3936939.083658117
2,1, 1, 1, 0, 3, 0.00,60.00,Sunday
7,5.825
8,180000.0
167,20.051727173241525
168,650.3662839980658
231,0.007725245473225911
232,54.99999999980028
233,23.41503156939379
382,1011.7040949861113
383,23.666099581352026
384,55.0
385,0.007725245473225911
347,3642134.741950001
2,1, 1, 1, 0, 4, 0.00,60.00,Sunday
7,6.550000000000001
8,180000.0
167,20.048705723221365
168,615.9041352623966
231,0.007302314983723957
232,54.999999999817479
233,23.335336515091446
382,956.8335726103174
383,23.649222212183333
384,55.0
385,0.007302314983723957
347,3444600.8613971427
2,1, 1, 1, 0, 5, 0.00,60.00,Sunday
7,7.033333333333334
8,180000.0
167,20.04690193014566
168,592.8731250554829
231,0.007020361324055989
232,54.99999999983249
233,23.281013678040677
382,920.4833958651388
383,23.62903052528013
384,55.0
385,0.007020361324055989
347,3313740.2251144999
2,1, 1, 1, 0, 6, 0.00,60.00,Sunday
7,7.375
8,180000.0
167,20.045355024774687
168,577.1534063893262
231,0.006828120192464191
232,54.99999999984585
233,23.24276254174157
382,895.896693744697
383,23.607413668322704
384,55.0
385,0.006828120192464191
347,3225228.097480909
2,1, 1, 1, 0, 7, 0.00,60.00,Sunday
7,7.5
8,180000.0
167,20.044457954751029
168,568.4194510515434
231,0.006721319563802082
232,54.99999999985787
233,23.22138096484476
382,882.4995892069832
383,23.585582210173518
384,55.0
385,0.006721319563802082
347,3176998.521145139
2,1, 1, 1, 0, 8, 0.00,60.00,Sunday
7,7.033333333333335
8,180000.0
167,20.045008120682224
168,577.3220607843347
231,0.006830968209228515
232,54.99999999986895
233,23.242485346151584
382,897.4816258547907
383,23.565218035458526
384,55.0
385,0.006830968209228515
347,3230933.8530772465
2,1, 1, 1, 0, 9, 0.00,60.00,Sunday
7,6.291666666666667
8,180000.0
167,20.04763483725551
168,605.3593250435853
231,0.007175578237711586
232,54.99999999987949
233,23.31008578501303
382,943.2215697837632
383,23.549792179924834
384,55.0
385,0.007175578237711586
347,3395597.6512215475
2,1, 1, 1, 0,10, 0.00,60.00,Sunday
7,5.533333333333335
8,180000.0
167,20.04842781206891
168,611.2771937556408
231,0.007246778656819661
232,54.99999999988953
233,23.324657530280047
382,952.8977289707891
383,23.53928478701616
384,55.0
385,0.007246778656819661
347,3430431.8242948406
2,1, 1, 1, 0,11, 0.00,60.00,Sunday
7,5.2
8,180000.0
167,20.04429034530266
168,562.7071426106166
231,0.006652967161458333
232,54.99999999989844
233,23.208026766997823
382,875.1838049285967
383,23.5259521896956
384,55.0
385,0.006652967161458333
347,3150661.6977429485
2,1, 1, 1, 0,12, 0.00,60.00,Sunday
7,5.2
8,180000.0
167,20.040221561216997
168,522.1582887234032
231,0.006163108277994791
232,54.9999999999059
233,23.10621992084768
382,811.2809961592562
383,23.50529262338074
384,55.0
385,0.006163108277994791
347,2920611.5861733227
2,1, 1, 1, 0,13, 0.00,60.00,Sunday
7,5.2
8,180000.0
167,20.038638905066848
168,506.86343500639267
231,0.005979411196695962
232,54.99999999991252
233,23.066721053004235
382,787.6643138483523
383,23.482754043252354
384,55.0
385,0.005979411196695962
347,2835591.529854068
2,1, 1, 1, 0,14, 0.00,60.00,Sunday
7,4.8500000000000009
8,180000.0
167,20.038737384314858
168,513.1575783668251
231,0.006057731657714842
232,54.99999999991854
233,23.082111811923118
382,798.5547159421955
383,23.460398235284804
384,55.0
385,0.006057731657714842
347,2874796.9773919035
2,1, 1, 1, 0,15, 0.00,60.00,Sunday
7,4.308333333333334
8,180000.0
167,20.04777438879025
168,624.8903364658091
231,0.007427627721354166
232,54.99999999992479
233,23.353389358432
382,979.4952234830881
383,23.44882656746803
384,55.0
385,0.007427627721354166
347,3526182.8045391167
2,1, 1, 1, 0,16, 0.00,60.00,Sunday
7,3.75
8,180000.0
167,20.057617042631099
168,720.0346080639107
231,0.008589618561197915
232,54.99999999993173
233,23.567518215243827
382,1132.2760042007703
383,23.461300376130997
384,55.0
385,0.008589618561197915
347,4076193.6151227729
2,1, 1, 1, 0,17, 0.00,60.00,Sunday
7,3.3249999999999999
8,180000.0
167,20.060023377258518
168,753.8359480359553
231,0.009008277025553385
232,54.99999999993859
233,23.639380912208045
382,1186.5317839014306
383,23.48602539564836
384,55.0
385,0.009008277025553385
347,4271514.42204515
2,1, 1, 1, 0,18, 0.00,60.00,Sunday
7,3.025
8,180000.0
167,20.061597855409567
168,770.2468515836216
231,0.00921048621582031
232,54.999999999944957
233,23.6730923598988
382,1212.09058150094
383,23.513896225491736
384,55.0
385,0.00921048621582031
347,4363526.093403384
2,1, 1, 1, 0,19, 0.00,60.00,Sunday
7,2.725
8,180000.0
167,20.0623414984505
168,781.726468072167
231,0.009352887054036459
232,54.99999999995077
233,23.69633847489513
382,1229.7206857362519
383,23.54220355561085
384,55.0
385,0.009352887054036459
347,4426994.468650506
2,1, 1, 1, 0,20, 0.00,60.00,Sunday
7,2.5416666666666667
8,180000.0
167,20.063037208817709
168,788.9828717850199
231,0.009444023590494792
232,54.99999999995601
233,23.71144042060324
382,1240.6049076519505
383,23.569970459159227
384,55.0
385,0.009444023590494792
347,4466177.667547021
2,1, 1, 1, 0,21, 0.00,60.00,Sunday
7,2.441666666666667
8,180000.0
167,20.064043791787844
168,790.8477492509513
231,0.009466807724609374
232,54.99999999996075
233,23.715887735497437
382,1242.5694887067145
383,23.595896930257515
384,55.0
385,0.009466807724609374
347,4473250.159344172
2,1, 1, 1, 0,22, 0.00,60.00,Sunday
7,2.341666666666667
8,180000.0
167,20.063916108432893
168,790.6325043103138
231,0.00946395970784505
232,54.99999999996498
233,23.71525158838483
382,1241.2714784265127
383,23.619192181350184
384,55.0
385,0.00946395970784505
347,4468577.322335444
2,1, 1, 1, 0,23, 0.00,60.00,Sunday
7,2.3000000000000004
8,180000.0
167,20.063682139542938
168,790.9087784232182
231,0.009466807724609374
232,54.999999999968739
233,23.71572081659656
382,1240.8222877727576
383,23.63991778508188
384,55.0
385,0.009466807724609374
347,4466960.235981927
2,1, 1, 1, 0,24, 0.00,60.00,Sunday
7,2.2416666666666669
8,180000.0
167,20.06362471721724
168,793.8807325937397
231,0.00950383194254557
232,54.99999999997209
233,23.721297925259905
382,1244.9238522690378
383,23.658768031413094
384,55.0
385,0.00950383194254557
347,4481725.868168537
2,2, 1, 2, 0, 1, 0.00,60.00,Monday
7,2.1999999999999999
8,180000.0
167,20.064622064474237
168,798.3679301130766
231,0.009560792277832029
232,54.99999999997511
233,23.73098796941906
382,1251.671337155468
383,23.676581177530307
384,54.99999999999999
385,0.009560792277832029
347,4506016.8137596859
2,2, 1, 2, 0, 2, 0.00,60.00,Monday
7,2.1999999999999999
8,180000.0
167,20.06441973311514
168,800.8697526909933
231,0.00959212046223958
232,54.999999999977827
233,23.735903399328888
382,1255.0984076119505
383,23.693355978866959
384,55.0
385,0.00959212046223958
347,4518354.267403021
2,2, 1, 2, 0, 3, 0.00,60.00,Monday
7,2.141666666666667
8,180000.0
167,20.064490587908023
168,804.5494494623548
231,0.009637688730468749
232,54.999999999980229
233,23.74289943260639
382,1260.433471016684
383,23.708877812402475
384,55.0
385,0.009637688730468749
347,4537560.495660062
2,2, 1, 2, 0, 4, 0.00,60.00,Monday
7,2.1
8,180000.0
167,20.065714173027634
168,810.8866931534477
231,0.00971743319986979
232,54.999999999982389
233,23.756037363732358
382,1270.2447377851274
383,23.724049699967329
384,55.0
385,0.00971743319986979
347,4572881.056026459
2,2, 1, 2, 0, 5, 0.00,60.00,Monday
7,2.1
8,180000.0
167,20.065448250330389
168,813.014724256907
231,0.009743065350748696
232,54.99999999998433
233,23.760087849279257
382,1273.0018311068775
383,23.73858563620658
384,55.0
385,0.009743065350748696
347,4582806.591984759
2,2, 1, 2, 0, 6, 0.00,60.00,Monday
7,2.0416666666666667
8,360000.0
167,20.062594213396556
168,770.411296544397
231,0.009204790182291664
232,54.99999999998602
233,23.673511908062918
382,1202.3635888648998
383,23.746584249296828
384,55.0
385,0.009204790182291664
347,4328508.919913638
2,2, 1, 2, 0, 7, 0.00,60.00,Monday
7,2.0
8,360000.0
167,20.062988051005076
168,773.6189650078219
231,0.00924181440022786
232,54.99999999998749
233,23.679569997387035
382,1207.0844741646447
383,23.74956412496901
384,55.0
385,0.00924181440022786
347,4345504.106992721
2,2, 1, 2, 0, 8, 0.00,60.00,Monday
7,2.0
8,1080000.0
167,20.04897879032276
168,600.6826778441032
231,0.007081593684488931
232,54.99999999998864
233,23.29590716560266
382,925.346213589241
383,23.735899896510998
384,55.0
385,0.007081593684488931
347,3331246.368921268
2,2, 1, 2, 0, 9, 0.00,60.00,Monday
7,1.9416666666666667
8,3240000.0
167,20.008110785943239
168,105.32291925004297
231,0.0011790789404296874
232,54.99999999998919
233,21.61772560103479
382,154.20607331494487
383,23.710947142220605
384,55.0
385,0.0011790789404296874
347,555141.8639338014
2,2, 1, 2, 0,10, 0.00,60.00,Monday
7,1.9000000000000002
8,3240000.0
167,20.01170439768957
168,134.03722383162777
231,0.0014959208054606117
232,54.99999999998939
233,21.766325924496674
382,195.8257088048742
383,23.678182870180139
384,55.0
385,0.0014959208054606117
347,704972.5516975471
2,2, 1, 2, 0,11, 0.00,60.00,Monday
7,1.9000000000000002
8,3240000.0
167,20.005592062090896
168,60.60184550177305
231,0.0006657239186604818
232,54.99999999998952
233,21.371802885861887
382,87.21663737584122
383,23.652537116272059
384,55.0
385,0.0006657239186604818
347,313979.89455302836
2,2, 1, 2, 0,12, 0.00,60.00,Monday
7,1.9000000000000002
8,3240000.0
167,20.00104680803133
168,11.142564347723152
231,0.00011676868733723955
232,54.99999999998956
233,21.06786207642845
382,15.303035444369167
383,23.64338912735529
384,55.0
385,0.00011676868733723955
347,55090.927599728995
2,2, 1, 2, 0,13, 0.00,60.00,Monday
7,1.9000000000000002
8,3240000.0
167,20.027321749350535
168,0.1996377048987116
231,0.0000014240083821614583
232,54.99999999998956
233,49.337402663121
382,0.18663289037246359
383,23.6420927666899
384,28.868407647560827
385,0.0000014240083821614583
347,671.8784053408689
2,2, 1, 2, 0,14, 0.00,60.00,Monday
7,1.7249999999999999
8,3240000.0
167,20.06616738772541
168,0.0
231,0.0
232,54.99999999998956
233,54.99999999998956
382,0.0
383,23.642089177072994
384,23.642089177072994
385,0.0
347,0.0
2,2, 1, 2, 0,15, 0.00,60.00,Monday
7,1.4250000000000005
8,3240000.0
167,20.007091653793024
168,95.16139148720917
231,0.0010623102530924478
232,54.999999999989629
233,21.557754690163404
382,139.28416570147099
383,23.63277303297605
384,55.0
385,0.0010623102530924478
347,501422.9965252955
2,2, 1, 2, 0,16, 0.00,60.00,Monday
7,1.125
8,3240000.0
167,20.01633888952411
168,190.58827520587239
231,0.0021452686277262367
232,54.999999999989828
233,22.018926443369243
382,281.5516853718312
383,23.599570922048185
384,55.0
385,0.0021452686277262367
347,1013586.0673385923
2,2, 1, 2, 0,17, 0.00,60.00,Monday
7,0.9416666666666669
8,3240000.0
167,20.018635876227969
168,216.2215671849588
231,0.0024393263586425775
232,54.99999999999011
233,22.12436208392472
382,320.537227053706
383,23.560641871752055
384,55.0
385,0.0024393263586425775
347,1153934.0173933414
2,2, 1, 2, 0,18, 0.00,60.00,Monday
7,0.7833333333333333
8,1800000.0
167,20.0492810083832
168,567.8487588348543
231,0.006635879060872395
232,54.99999999999065
233,23.20394975025572
382,872.7462161695499
383,23.532724263032418
384,55.0
385,0.006635879060872395
347,3141886.3782103799
2,2, 1, 2, 0,19, 0.00,60.00,Monday
7,0.6416666666666667
8,1080000.0
167,20.06028676661593
168,706.6627357876213
231,0.008364625236816406
232,54.99999999999145
233,23.531296543108664
382,1100.2582922963097
383,23.528762367500634
384,55.0
385,0.008364625236816406
347,3960929.8522667146
2,2, 1, 2, 0,20, 0.00,60.00,Monday
7,0.6
8,1080000.0
167,20.057107351437439
168,684.8442317026033
231,0.008105455711263019
232,54.99999999999225
233,23.48618059891915
382,1065.9425020737053
383,23.535339332863545
384,55.0
385,0.008105455711263019
347,3837393.007465338
2,2, 1, 2, 0,21, 0.00,60.00,Monday
7,0.6
8,720000.0
167,20.064272862575668
168,769.8968233233651
231,0.00917061398111979
232,54.99999999999301
233,23.668547382823623
382,1205.4586852876012
383,23.550005633646494
384,55.0
385,0.00917061398111979
347,4339651.267035363
2,2, 1, 2, 0,22, 0.00,60.00,Monday
7,0.6
8,720000.0
167,20.0623992243053
168,763.1036673462754
231,0.00909086951171875
232,54.99999999999374
233,23.655007196096837
382,1194.161223031294
383,23.571345741889883
384,55.0
385,0.00909086951171875
347,4298980.402912659
2,2, 1, 2, 0,23, 0.00,60.00,Monday
7,0.7166666666666667
8,360000.0
167,20.06965618798024
168,845.5378168354843
231,0.010133243647460936
232,54.99999999999442
233,23.82170908810846
382,1329.8162648097064
383,23.60133871953107
384,55.0
385,0.010133243647460936
347,4787338.553314943
2,2, 1, 2, 0,24, 0.00,60.00,Monday
7,0.8583333333333334
8,180000.0
167,20.070798299977605
168,871.8197797821086
231,0.010475005659179686
232,54.99999999999506
233,23.87419944046302
382,1372.9108055483541
383,23.641293900842006
384,55.0
385,0.010475005659179686
347,4942478.899974075
2,3, 1, 3, 0, 1, 0.00,60.00,Tuesday
7,1.0166666666666667
8,180000.0
167,20.069349158822634
168,858.6631399952872
231,0.01031266870361328
232,54.999999999995647
233,23.849301945794197
382,1350.0298586789704
383,23.67835791112529
384,55.0
385,0.01031266870361328
347,4860107.491244294
2,3, 1, 3, 0, 2, 0.00,60.00,Tuesday
7,0.9833333333333334
8,180000.0
167,20.069191371072184
168,854.1347095358351
231,0.010255708368326821
232,54.999999999996159
233,23.84044974492926
382,1341.2642708783346
383,23.708772229040773
384,55.0
385,0.010255708368326821
347,4828551.3751620049
2,3, 1, 3, 0, 3, 0.00,60.00,Tuesday
7,0.725
8,180000.0
167,20.06911876850059
168,855.1277268912919
231,0.010267100435384114
232,54.9999999999966
233,23.84218043886104
382,1341.6117279753641
383,23.735304710176079
384,55.0
385,0.010267100435384114
347,4829802.220711311
2,3, 1, 3, 0, 4, 0.00,60.00,Tuesday
7,0.48333333333333336
8,180000.0
167,20.069787477257355
168,859.9113529010677
231,0.010326908787434896
232,54.999999999996997
233,23.851335992109957
382,1348.3820309465739
383,23.759425965135575
384,55.0
385,0.010326908787434896
347,4854175.311407667
2,3, 1, 3, 0, 5, 0.00,60.00,Tuesday
7,0.5166666666666667
8,180000.0
167,20.070201699857085
168,863.8094574364309
231,0.010378173089192708
232,54.99999999999735
233,23.8599474043439
382,1354.0787025258385
383,23.782379719627799
384,55.0
385,0.010378173089192708
347,4874683.329093019
2,3, 1, 3, 0, 6, 0.00,60.00,Tuesday
7,0.775
8,360000.0
167,20.065364745975
168,808.0337932920038
231,0.009671864931640621
232,54.99999999999765
233,23.749435358756945
382,1261.3700386871494
383,23.79603282125186
384,55.0
385,0.009671864931640621
347,4540932.139273737
2,3, 1, 3, 0, 7, 0.00,60.00,Tuesday
7,1.0166666666666667
8,360000.0
167,20.065020016494786
168,790.8525581980272
231,0.009455415657552083
232,54.999999999997907
233,23.715147830750899
382,1232.9825633017588
383,23.800042915884217
384,55.0
385,0.009455415657552083
347,4438737.227886331
2,3, 1, 3, 0, 8, 0.00,60.00,Tuesday
7,0.9833333333333334
8,1080000.0
167,20.04960042327111
168,602.710640475478
231,0.007104377818603514
232,54.999999999998099
233,23.300774401464083
382,926.9159960883463
383,23.78316657534609
384,55.0
385,0.007104377818603514
347,3336897.5859180467
2,3, 1, 3, 0, 9, 0.00,60.00,Tuesday
7,0.8416666666666667
8,3240000.0
167,20.008313618814677
168,108.23167324515119
231,0.0012111191290283203
232,54.99999999999818
233,21.631224831631653
382,158.16918825932846
383,23.75591133286396
384,55.0
385,0.0012111191290283203
347,569409.0777335824
2,3, 1, 3, 0,10, 0.00,60.00,Tuesday
7,0.6833333333333335
8,3240000.0
167,20.014892250795009
168,171.37036952168718
231,0.0019224113159179684
232,54.99999999999824
233,21.937263624091714
382,251.32938070967195
383,23.720102343386434
384,55.0
385,0.0019224113159179684
347,904785.7705548189
2,3, 1, 3, 0,11, 0.00,60.00,Tuesday
7,0.8916666666666666
8,3240000.0
167,20.014148730055639
168,161.34533401364545
231,0.0018077786411539712
232,54.99999999999827
233,21.893619840728478
382,236.6252123704172
383,23.68173357633491
384,55.0
385,0.0018077786411539712
347,851850.7645335018
2,3, 1, 3, 0,12, 0.00,60.00,Tuesday
7,1.3916666666666667
8,3240000.0
167,20.01060657548676
168,118.98706785442879
231,0.001324327795410156
232,54.99999999999832
233,21.693229336255784
382,173.52816043356894
383,23.64848188899573
384,55.0
385,0.001324327795410156
347,624701.3775608481
2,3, 1, 3, 0,13, 0.00,60.00,Tuesday
7,1.8916666666666667
8,3240000.0
167,20.007028161217684
168,80.50740783751374
231,0.0008900052388509114
232,54.999999999998347
233,21.49061076258229
382,116.71419362737584
383,23.62303699572409
384,55.0
385,0.0008900052388509114
347,420171.097058553
2,3, 1, 3, 0,14, 0.00,60.00,Tuesday
7,1.8666666666666665
8,3240000.0
167,20.006561989616448
168,78.30096667118777
231,0.0008650850921630857
232,54.999999999998347
233,21.477181123741805
382,113.52464193023104
383,23.60271573852474
384,55.0
385,0.0008650850921630857
347,408688.71094883189
2,3, 1, 3, 0,15, 0.00,60.00,Tuesday
7,1.5250000000000002
8,3240000.0
167,20.010683166117809
168,126.94119808961286
231,0.001416888340250651
232,54.99999999999835
233,21.73051316737725
382,186.08926275944678
383,23.577687589899044
384,55.0
385,0.001416888340250651
347,669921.3459340083
2,3, 1, 3, 0,16, 0.00,60.00,Tuesday
7,1.1666666666666668
8,3240000.0
167,20.01466656358227
168,168.22840510826257
231,0.0018875231105550128
232,54.99999999999841
233,21.92356424835656
382,248.1532270167855
383,23.54520247828923
384,55.0
385,0.0018875231105550128
347,893351.6172604276
2,3, 1, 3, 0,17, 0.00,60.00,Tuesday
7,1.0
8,3240000.0
167,20.016556719394506
168,188.3197958280209
231,0.002118212468465169
232,54.999999999998447
233,22.010943219965868
382,278.7915229792129
383,23.50989832402169
384,55.0
385,0.002118212468465169
347,1003649.4827251664
2,3, 1, 3, 0,18, 0.00,60.00,Tuesday
7,1.0
8,1800000.0
167,20.04763405394639
168,531.9377694077991
231,0.006201556504313151
232,54.99999999999853
233,23.11521885971149
382,816.9149344750845
383,23.48301387585653
384,55.0
385,0.006201556504313151
347,2940893.764110304
2,3, 1, 3, 0,19, 0.00,60.00,Tuesday
7,1.0
8,1080000.0
167,20.05679722258235
168,659.5156733397226
231,0.007786477833658854
232,54.99999999999864
233,23.428121403062677
382,1025.9451012374036
383,23.475600725161426
384,55.0
385,0.007786477833658854
347,3693402.364454652
2,3, 1, 3, 0,20, 0.00,60.00,Tuesday
7,1.0
8,1080000.0
167,20.053241407795637
168,629.3364393018109
231,0.007423355696207681
232,54.99999999999876
233,23.36157216781518
382,978.076596680672
383,23.476319132346196
384,55.0
385,0.007423355696207681
347,3521075.7480504189
2,3, 1, 3, 0,21, 0.00,60.00,Tuesday
7,1.0
8,720000.0
167,20.059558930203165
168,706.4145120830422
231,0.008384561354166666
232,54.99999999999887
233,23.53524888817482
382,1104.469471556936
383,23.483556061879385
384,55.0
385,0.008384561354166666
347,3976090.0976049697
2,3, 1, 3, 0,22, 0.00,60.00,Tuesday
7,1.0
8,720000.0
167,20.057391133877148
168,689.3026685587516
231,0.008176656130371092
232,54.999999999998987
233,23.49874042372033
382,1076.6706592264459
383,23.495535091256245
384,55.0
385,0.008176656130371092
347,3876014.3732152048
2,3, 1, 3, 0,23, 0.00,60.00,Tuesday
7,1.2333333333333335
8,360000.0
167,20.06299986811877
168,766.363461462261
231,0.009144981830240885
232,54.99999999999907
233,23.663469312548256
382,1203.446742571783
383,23.51464723194469
384,55.0
385,0.009144981830240885
347,4332408.273258418
2,3, 1, 3, 0,24, 0.00,60.00,Tuesday
7,1.575
8,180000.0
167,20.06485170116219
168,788.0414018498877
231,0.009426935489908854
232,54.99999999999917
233,23.709959082086013
382,1239.4281604468663
383,23.543040631817733
384,55.0
385,0.009426935489908854
347,4461941.377608719
2,4, 1, 4, 0, 1, 0.00,60.00,Wednesday
7,1.9333333333333334
8,180000.0
167,20.06278152969135
168,769.0281211301343
231,0.00919339811523437
232,54.99999999999924
233,23.671857442708317
382,1207.7316695164843
383,23.568721352141279
384,55.0
385,0.00919339811523437
347,4347834.010259341
2,4, 1, 4, 0, 2, 0.00,60.00,Wednesday
7,1.6916666666666667
8,180000.0
167,20.062326760059326
168,765.5587142639378
231,0.009150677863769531
232,54.99999999999934
233,23.664375142448013
382,1201.3491830072992
383,23.588747719204567
384,55.0
385,0.009150677863769531
347,4324857.058826277
2,4, 1, 4, 0, 3, 0.00,60.00,Wednesday
7,1.05
8,180000.0
167,20.063393928151134
168,779.7178411944409
231,0.00932725490315755
232,54.99999999999941
233,23.6934290508127
382,1223.7665160046697
383,23.608285098239806
384,55.0
385,0.00932725490315755
347,4405559.45761681
2,4, 1, 4, 0, 4, 0.00,60.00,Wednesday
7,0.3916666666666668
8,180000.0
167,20.064902329513758
168,798.9844186431814
231,0.009566488311360675
232,54.99999999999947
233,23.731927717970846
382,1254.2879741851718
383,23.629888588768556
384,55.0
385,0.009566488311360675
347,4515436.707066619
2,4, 1, 4, 0, 5, 0.00,60.00,Wednesday
7,-0.13333333333333334
8,180000.0
167,20.067145774234679
168,820.2867675639155
231,0.009831353870442705
232,54.99999999999952
233,23.774434119478959
382,1288.0140915415977
383,23.654173072452637
384,55.0
385,0.009831353870442705
347,4636850.729549752
2,4, 1, 4, 0, 6, 0.00,60.00,Wednesday
7,-0.5333333333333333
8,360000.0
167,20.065306535907149
168,795.5974680492603
231,0.009515224009602861
232,54.999999999999548
233,23.724999300814689
382,1245.7590354785584
383,23.675201698265238
384,55.0
385,0.009515224009602861
347,4484732.52772281
2,4, 1, 4, 0, 7, 0.00,60.00,Wednesday
7,-0.9333333333333332
8,360000.0
167,20.068153154616998
168,817.7268522363182
231,0.009788633618977862
232,54.9999999999996
233,23.768865311065527
382,1280.7869495319098
383,23.693922359047084
384,55.0
385,0.009788633618977862
347,4610833.018314875
2,4, 1, 4, 0, 8, 0.00,60.00,Wednesday
7,-1.2750000000000002
8,1080000.0
167,20.054994710235325
168,660.6345691571242
231,0.007814958001302082
232,54.99999999999963
233,23.434824453096309
382,1022.489107371489
383,23.695705809557507
384,55.0
385,0.007814958001302082
347,3680960.78653736
2,4, 1, 4, 0, 9, 0.00,60.00,Wednesday
7,-1.633333333333333
8,3240000.0
167,20.014995387728175
168,182.51303947367559
231,0.00206054012898763
232,54.99999999999966
233,21.981217235907037
382,269.8268344819129
383,23.671618324927363
384,55.0
385,0.00206054012898763
347,971376.6041348865
2,4, 1, 4, 0,10, 0.00,60.00,Wednesday
7,-1.9749999999999999
8,3240000.0
167,20.019988798996754
168,225.30343760218566
231,0.0025439909747314449
232,54.99999999999966
233,22.158574954249337
382,333.5403750516401
383,23.629573053796795
384,55.0
385,0.0025439909747314449
347,1200745.3501859045
2,4, 1, 4, 0,11, 0.00,60.00,Wednesday
7,-2.275
8,3240000.0
167,20.0094339539684
168,101.26955687247505
231,0.0011206945967610675
232,54.99999999999966
233,21.59829675160596
382,147.0903804274566
383,23.59558285099992
384,55.0
385,0.0011206945967610675
347,529525.3695388438
2,4, 1, 4, 0,12, 0.00,60.00,Wednesday
7,-2.5166666666666668
8,3240000.0
167,20.007495029372529
168,85.99501041547792
231,0.0009519496034749347
232,54.99999999999966
233,21.52054277388375
382,125.03992500126305
383,23.573542265321338
384,55.0
385,0.0009519496034749347
347,450143.73000454696
2,4, 1, 4, 0,13, 0.00,60.00,Wednesday
7,-2.7750000000000005
8,3240000.0
167,20.00820597660273
168,95.92738138401679
231,0.001065158269856771
232,54.99999999999966
233,21.575546624864569
382,140.0128125471499
383,23.549956333749479
384,55.0
385,0.001065158269856771
347,504046.12516973979
2,4, 1, 4, 0,14, 0.00,60.00,Wednesday
7,-3.25
8,3240000.0
167,20.00970428836827
168,116.0638862430988
231,0.0012937116151936848
232,54.99999999999966
233,21.677020413099958
382,170.19596141865939
383,23.525154886793719
384,55.0
385,0.0012937116151936848
347,612705.4611071737
2,4, 1, 4, 0,15, 0.00,60.00,Wednesday
7,-3.908333333333333
8,3240000.0
167,20.021348567272839
168,253.13690663410805
231,0.002875784927775065
232,54.99999999999966
233,22.25540394108957
382,378.7368805057907
383,23.492506468207265
384,55.0
385,0.002875784927775065
347,1363452.7698208465
2,4, 1, 4, 0,16, 0.00,60.00,Wednesday
7,-4.55
8,3240000.0
167,20.03317933658445
168,377.99415527469156
231,0.0043361055236816399
232,54.99999999999966
233,22.684009319977439
382,571.7027793807142
383,23.45528545154956
384,55.0
385,0.0043361055236816399
347,2058130.005770571
2,4, 1, 4, 0,17, 0.00,60.00,Wednesday
7,-4.9750000000000009
8,3240000.0
167,20.037532208192606
168,421.0147682392512
231,0.00484447651611328
232,54.99999999999966
233,22.813404353005827
382,639.3756805767305
383,23.423116328197009
384,55.0
385,0.00484447651611328
347,2301752.45007623
2,4, 1, 4, 0,18, 0.00,60.00,Wednesday
7,-5.333333333333333
8,1800000.0
167,20.069154311691695
168,781.6989371647884
231,0.009256054484049479
232,54.99999999999968
233,23.682675092946075
382,1221.3608552799212
383,23.429881045195136
384,55.0
385,0.009256054484049479
347,4396899.079007717
2,4, 1, 4, 0,19, 0.00,60.00,Wednesday
7,-5.675
8,1080000.0
167,20.080467101457839
168,928.588431951403
231,0.01112435348144531
232,54.999999999999719
233,23.973907018934069
382,1465.1575549548622
383,23.488413263824275
384,55.0
385,0.01112435348144531
347,5274567.197837504
2,4, 1, 4, 0,20, 0.00,60.00,Wednesday
7,-5.858333333333333
8,1080000.0
167,20.07793046969035
168,913.2789992955054
231,0.01093923239176432
232,54.999999999999769
233,23.9474228242472
382,1437.5654552069839
383,23.558123703602296
384,55.0
385,0.01093923239176432
347,5175235.638745141
2,4, 1, 4, 0,21, 0.00,60.00,Wednesday
7,-6.016666666666666
8,720000.0
167,20.085058121375217
168,1001.307502585652
231,0.012064199013671876
232,54.9999999999998
233,24.107140909907345
382,1581.6634268661812
383,23.632140368530277
384,55.0
385,0.012064199013671876
347,5693988.336718253
2,4, 1, 4, 0,22, 0.00,60.00,Wednesday
7,-6.158333333333332
8,720000.0
167,20.0840824123707
168,997.9778519556244
231,0.012027174795735679
232,54.99999999999984
233,24.102266490214505
382,1572.9605926247916
383,23.708331450223928
384,55.0
385,0.012027174795735679
347,5662658.133449249
2,4, 1, 4, 0,23, 0.00,60.00,Wednesday
7,-6.2
8,360000.0
167,20.090781275079327
168,1087.7705133018255
231,0.01318346960205078
232,54.999999999999868
233,24.256347585552459
382,1719.7169447920423
383,23.78934692761823
384,55.0
385,0.01318346960205078
347,6190981.001251352
2,4, 1, 4, 0,24, 0.00,60.00,Wednesday
7,-6.258333333333333
8,180000.0
167,20.093272570050404
168,1120.899920393888
231,0.013616368150227864
232,54.99999999999988
233,24.31240179944186
382,1771.160216834457
383,23.877365303486955
384,55.0
385,0.013616368150227864
347,6376176.780604044
2,5, 1, 5, 0, 1, 0.00,60.00,Thursday
7,-6.3
8,180000.0
167,20.092507202522048
168,1115.6962909934957
231,0.013553711781412759
232,54.99999999999988
233,24.304528645321338
382,1758.5047290398118
383,23.956592096185636
384,55.0
385,0.013553711781412759
347,6330617.024543322
2,5, 1, 5, 0, 2, 0.00,60.00,Thursday
7,-6.358333333333333
8,180000.0
167,20.09256534988545
168,1115.4204312547874
231,0.013550863764648433
232,54.99999999999988
233,24.30418773337929
382,1754.3427332582175
383,24.023353172600499
384,55.0
385,0.013550863764648433
347,6315633.839729583
2,5, 1, 5, 0, 3, 0.00,60.00,Thursday
7,-6.458333333333333
8,180000.0
167,20.092225670108019
168,1117.7064740353687
231,0.013579343932291663
232,54.99999999999988
233,24.307057375637169
382,1754.7900570198265
383,24.080253158445257
384,55.0
385,0.013579343932291663
347,6317244.205271376
2,5, 1, 5, 0, 4, 0.00,60.00,Thursday
7,-6.558333333333334
8,180000.0
167,20.092546476012733
168,1121.7446364899497
231,0.013630608234049477
232,54.99999999999988
233,24.313770635626726
382,1758.5987465426654
383,24.129528512576628
384,55.0
385,0.013630608234049477
347,6330955.487553595
2,5, 1, 5, 0, 5, 0.00,60.00,Thursday
7,-6.483333333333333
8,180000.0
167,20.09321304074773
168,1126.026460157346
231,0.013684720552571613
232,54.99999999999988
233,24.321004765626186
382,1763.1016524917748
383,24.172757898480979
384,55.0
385,0.013684720552571613
347,6347165.948970389
2,5, 1, 5, 0, 6, 0.00,60.00,Thursday
7,-6.341666666666666
8,360000.0
167,20.089761424300464
168,1082.0994828734465
231,0.013120813233235674
232,54.99999999999988
233,24.24857889142375
382,1688.7459210788436
383,24.20371944606556
384,55.0
385,0.013120813233235674
347,6079485.315883838
2,5, 1, 5, 0, 7, 0.00,60.00,Thursday